53
Properties=species:S:1:pos:R:3:forces:R:3 Atoms:=T 53,=T ConfID:=T 1=T 0=T spin=1 charge=1 energy=-30761.6632553087 free_energy=-30761.6632553087 stress="-0.020392723381519318 -0.02348785474896431 -0.03823927789926529 -0.02348785474896431 -0.02333027683198452 0.08815518021583557 -0.03823927789926529 0.08815518021583557 0.004775273613631725" pbc="F F F"
C        3.13531140      -1.62822184      -0.72246425       0.00273629      -0.00063185       0.00140214
C        2.06319950      -2.66448100      -0.81868484       0.00117892      -0.00396357      -0.00163545
C        2.15161492      -3.82096623       0.11595680      -0.00133075       0.00212417       0.00751168
N        1.17381942      -2.56739458      -1.74600151      -0.00381950       0.00098920       0.00283994
C        1.25822086      -1.55538381      -2.83182844      -0.00056679       0.00037985      -0.00399012
C        0.55247505      -2.23310928      -3.99387309      -0.00234755       0.00022142       0.00006430
C       -0.57826850      -2.98274037      -3.30450090      -0.00046231       0.00281654       0.00051761
C        0.03708331      -3.51670118      -2.00653677      -0.00236337      -0.00149972      -0.00143033
C       -0.97881160      -3.67526793      -0.86292812       0.00043253      -0.00080753       0.00135117
N       -1.16179295      -2.52566949       0.00408159      -0.00013564       0.00039411       0.00249359
H        0.20911956      -2.69892625       1.24279549       0.00332016      -0.00154425       0.00062040
C       -1.67952069      -1.29704479      -0.60877392      -0.00174279      -0.00293522      -0.00707414
C       -2.07434112      -0.43869089       0.59370952       0.00038860       0.00034261      -0.00718667
C       -2.43224818      -1.46367516       1.69389541       0.00059166       0.00352122      -0.00095732
C       -2.17162659      -2.82050554       1.04392596      -0.00408688      -0.00060697       0.00292207
H        3.68926543      -1.73391123       0.20463674       0.00142902       0.00217839       0.00538451
H        2.72961437      -0.61931473      -0.78728758       0.00495497       0.00206153       0.00129848
H        3.84124211      -1.76101410      -1.54718713      -0.00090670       0.00168195      -0.00348077
H        3.16571899      -4.21329046      -0.02349502      -0.00493211       0.00420282      -0.00066935
H        1.45003736      -4.61701799      -0.12303168      -0.00054195       0.00498536       0.00513265
H        0.74466774      -0.64767262      -2.51207520       0.00150282      -0.00263507       0.00253098
H        2.29767745      -1.31679893      -3.03327470      -0.00003195       0.00444938      -0.00037690
H        0.20534499      -1.51248791      -4.73041998      -0.00246208      -0.00148368       0.00130233
H        1.23449189      -2.92486680      -4.49115519       0.00180511       0.00488346       0.00260650
H       -1.39992412      -2.30405672      -3.07646804      -0.00160582      -0.00064870       0.00230132
H       -0.98057046      -3.79930038      -3.90035524       0.00361448       0.00456150       0.00049856
H        0.49219763      -4.49022909      -2.20059490      -0.00201301      -0.00262546      -0.00173800
H       -0.69487934      -4.50998851      -0.21991259       0.00389075      -0.00049117       0.00067822
H       -1.92524342      -3.96618698      -1.34558493       0.00177703       0.00204697      -0.00316867
H       -2.55967631      -1.52308689      -1.22923373      -0.00877257      -0.00283055      -0.00280909
H       -0.93398380      -0.81601678      -1.24062950       0.00126883       0.00079716      -0.00531359
H       -2.90009508       0.22628320       0.35002106      -0.00169779      -0.00151061      -0.00218296
H       -1.23611488       0.18338937       0.90596380       0.00088459      -0.00243953      -0.00279675
H       -1.79864026      -1.33169670       2.56920718       0.00529524       0.00085161      -0.00266618
H       -3.46578151      -1.37735220       2.02143801      -0.00006742      -0.00193803      -0.00047752
H       -1.79797103      -3.57544385       1.73409401       0.00518683       0.00123283       0.00265508
H       -3.08233816      -3.20786939       0.56672036      -0.00582376      -0.00307974       0.00134602
C        2.00413950      -3.45131503       1.61790169       0.00419628       0.00000830       0.00315454
O        0.67162985      -3.19525819       1.95267724       0.00544558      -0.00054831       0.00074186
C        2.51829403      -4.60342677       2.45115308      -0.00078588      -0.00313601      -0.00080626
C        3.83941252      -4.61099100       2.88202652      -0.00157196       0.00030790      -0.00530527
C        4.33789108      -5.68214787       3.60520523      -0.00238211       0.00535937       0.00255939
C        3.48756877      -6.73464442       3.88303063      -0.00146839       0.00360516      -0.00095994
N        4.00797950      -7.88309642       4.65675128       0.00165894      -0.00342802      -0.00381852
O        5.16197166      -7.82827821       5.02338690      -0.00336759      -0.00462889      -0.00309295
O        3.24530357      -8.80093091       4.86865869       0.00390940       0.00048507       0.00111012
C        2.16719066      -6.75158305       3.47481228      -0.00261158      -0.00015823       0.00644529
C        1.68334603      -5.67202928       2.75468356       0.00097374      -0.00284695       0.00077431
H        2.63382514      -2.57782383       1.82832499       0.00221233       0.00228534      -0.00365602
H        4.48542652      -3.76660186       2.66958989       0.00102606      -0.00319862      -0.00163458
H        5.35717081      -5.70769472       3.96056446      -0.00032836      -0.00298827      -0.00154640
H        1.54185762      -7.59464479       3.72792842      -0.00379244      -0.00117862       0.00438738
H        0.64693775      -5.64629844       2.44615665       0.00233909      -0.00298955       0.00414321
