53
Properties=species:S:1:pos:R:3:forces:R:3 Atoms:=T 53,=T ConfID:=T 0=T 1=T spin=1 charge=1 energy=-30761.504156683517 free_energy=-30761.504156683517 stress="-0.0487322136759758 0.006463187281042337 -0.06656832247972488 0.006463187281042337 0.03118891641497612 0.024116387590765953 -0.06656832247972488 0.024116387590765953 -0.025943733751773834" pbc="F F F"
C        3.13520098      -3.03919394      -0.69219474       0.00070811      -0.00174751      -0.00081572
C        1.85209668      -3.68681695      -1.13285709      -0.00238051       0.00158138      -0.00061082
C        1.58596554      -4.96483677      -0.83182862       0.00061078       0.00031821      -0.00269394
N        0.96647070      -2.85264018      -1.81988141      -0.00385942       0.00413935       0.00033675
C        1.46848379      -1.77229658      -2.69596088       0.00278994      -0.00051482      -0.00527893
C        0.64015087      -1.90789127      -3.96900189      -0.00767684       0.00136440       0.00227357
C       -0.69619140      -2.41845683      -3.44351274      -0.00299712      -0.00514143       0.00040298
C       -0.26797741      -3.41270827      -2.36191034       0.00043548      -0.00267708      -0.00324573
C       -1.32062791      -3.67606795      -1.27301214       0.00403705       0.00048271      -0.00335313
N       -1.19520577      -2.75877675      -0.10805680      -0.00172780      -0.00034049      -0.00180794
H       -0.20975778      -2.76142218       0.19001661      -0.00569530       0.00042909      -0.00102237
C       -1.58095201      -1.33126689      -0.34362210       0.00149339      -0.00192830       0.00186688
C       -1.73210365      -0.76472400       1.05878221       0.00251929      -0.00074182      -0.00064945
C       -2.28028499      -1.93537320       1.89811983      -0.00198136       0.00369569       0.00089010
C       -2.02311351      -3.19861793       1.06784617      -0.00115186       0.00205876       0.00050555
H        3.61336556      -3.64658777       0.07362262       0.00231847       0.00074715       0.00130408
H        2.95791384      -2.03634026      -0.29896472       0.00042416      -0.00137427      -0.00264461
H        3.83750514      -2.94755048      -1.52173433       0.00262707      -0.00172159       0.00125875
H        2.30543364      -5.53375448      -0.26249326       0.00133455       0.00013620       0.00193232
H        0.71525737      -5.49746295      -1.18376647      -0.00094548       0.00118249      -0.00031134
H        1.31671319      -0.79476130      -2.22729405      -0.00131838      -0.00487335       0.00013360
H        2.53188629      -1.88364549      -2.88841782       0.00840287       0.00177454       0.00433733
H        0.56120952      -0.97397216      -4.52155684      -0.00127174       0.00176387       0.00507228
H        1.09073463      -2.65399009      -4.62629739      -0.00401489       0.00853679       0.00224629
H       -1.27572920      -1.59656936      -3.01777836      -0.00102372      -0.00465278      -0.00362426
H       -1.31216267      -2.89675749      -4.20322627       0.00065986       0.00114340      -0.00424575
H       -0.06632038      -4.38076418      -2.83892251      -0.00124951      -0.00364005      -0.00291460
H       -1.22909341      -4.68183584      -0.86868016      -0.00428073       0.00320618       0.00070128
H       -2.32860232      -3.56215237      -1.67456567       0.00494995       0.00145221       0.00297110
H       -2.52485467      -1.34210811      -0.89097126       0.00400677      -0.00253547       0.00352725
H       -0.81438644      -0.84980127      -0.94402454      -0.00541308       0.00347882      -0.00064724
H       -2.39255144       0.09914335       1.06198848       0.00155873      -0.00127245       0.00096080
H       -0.76045169      -0.45192731       1.43474644       0.00364984      -0.00118343      -0.00500055
H       -1.78204701      -1.99130163       2.86252289       0.00387487       0.00125855      -0.00753059
H       -3.34674239      -1.82659295       2.08342444      -0.00306200      -0.00262056       0.00143345
H       -1.47173243      -3.97519006       1.59153837      -0.00301359      -0.00445186       0.00056070
H       -2.94249314      -3.62339925       0.66778850      -0.00057552       0.00397136      -0.00309528
C        1.92083408      -2.50258944       2.43528861      -0.00005280       0.00121314      -0.00271394
O        0.90017316      -2.42792360       1.78195126       0.00775180       0.00010318       0.00199448
C        2.50804017      -3.75904540       2.92614466      -0.00463125       0.00152546       0.00315682
C        3.69033102      -3.70438937       3.65737286      -0.00295162       0.00037800      -0.00049878
C        4.27192326      -4.87221024       4.12500492       0.00103477       0.00199784       0.00108578
C        3.64208359      -6.06699463       3.83882647       0.00295580       0.00140296       0.00171100
N        4.25672572      -7.32598747       4.33037164       0.00276191       0.00080131      -0.00053999
O        5.27589251      -7.22788310       4.97555447       0.00179083       0.00400498      -0.00104009
O        3.69279170      -8.36018474       4.04799869       0.00060235      -0.00510514       0.00176287
C        2.46399991      -6.15238984       3.11406981       0.00009054      -0.00076117       0.00503399
C        1.89429192      -4.98158172       2.65591480       0.00178724      -0.00023376      -0.00073883
H        2.47537931      -1.58477266       2.69588307      -0.00184241      -0.00325701       0.00209849
H        4.15636398      -2.74807764       3.86187379      -0.00002990      -0.00328669       0.00263457
H        5.18754116      -4.87015894       4.69684510       0.00231622      -0.00402502       0.00046984
H        2.02445791      -7.12052923       2.92586662      -0.00311967       0.00191365      -0.00117031
H        0.98337828      -5.00034980       2.07416958      -0.00122614       0.00202436       0.00353109
