53
Properties=species:S:1:pos:R:3:forces:R:3 Atoms:=T 53,=T ConfID:=T 1=T 0=T spin=1 charge=1 energy=-30761.804374311996 free_energy=-30761.804374311996 stress="-0.029866952449083328 0.012592384591698647 0.025531645864248276 0.012592384591698647 0.027884311974048615 0.023715196177363396 0.025531645864248276 0.023715196177363396 -0.08899103105068207" pbc="F F F"
C        4.75270327       1.01981605       2.23046342       0.00259516       0.00355147      -0.00301021
C        4.04808969      -0.12864393       2.85278962      -0.00156649       0.00351946      -0.00243456
C        3.54068753       0.06389800       4.24314854      -0.00323438      -0.00080095       0.00188341
N        3.79022082      -1.20959017       2.20099509       0.00575575       0.00081628      -0.00113816
C        3.29059518      -2.46749845       2.80882759      -0.00388784       0.00162278       0.00240707
C        3.75900601      -3.52239227       1.81904139      -0.00171350       0.00373884      -0.00123009
C        3.54850691      -2.83363508       0.47518741       0.00401618       0.00241428      -0.00097613
C        3.94327915      -1.37225834       0.72125848      -0.00059946       0.00059706      -0.00463476
C        3.12421020      -0.33791424      -0.07434482       0.00006310      -0.00068031      -0.00001139
N        1.88560129       0.10260983       0.55182311       0.00235229      -0.00437716       0.00023536
H        1.80082144       0.91083432       2.27597952      -0.00288372      -0.00206898       0.00262200
C        0.78465981      -0.87435584       0.54014570       0.00012371      -0.00044277      -0.00091787
C       -0.44702330      -0.03829879       0.88712508      -0.00180312      -0.00289491      -0.00126115
C       -0.10849473       1.37910503       0.37338470       0.00004568       0.00025918      -0.00004670
C        1.31413420       1.25775638      -0.17350987       0.00434069      -0.00322725       0.00227103
H        5.51138087       1.36648212       2.93390814       0.00259039      -0.00554538      -0.00043923
H        5.22127528       0.79565231       1.27886479      -0.00165106      -0.00285608      -0.00455560
H        4.03784065       1.83943075       2.11883294      -0.00152590      -0.00093660      -0.00456194
H        4.03719480       0.92031339       4.69550801       0.00113421      -0.00077690       0.00040109
H        3.69986424      -0.80435001       4.88175397       0.00424631      -0.00337027       0.00388708
H        3.70120286      -2.58438533       3.80737289      -0.00050883       0.00155134       0.00397371
H        2.20279402      -2.43312215       2.87181950      -0.00806395       0.00420091      -0.00159197
H        4.81458280      -3.74365199       1.98475885      -0.00436359      -0.00257491      -0.00024868
H        3.19864935      -4.44895400       1.91857205       0.00197599       0.00255657       0.00047636
H        4.14475142      -3.26543754      -0.32551947       0.00484788      -0.00209945       0.00446305
H        2.50259967      -2.89549547       0.17559320       0.00735912      -0.00114925       0.00084931
H        5.00044115      -1.23830978       0.48450887      -0.00149332      -0.00170476       0.00007403
H        2.93185127      -0.78275154      -1.06267825       0.00018220      -0.00103928       0.00275998
H        3.72701065       0.55194308      -0.25300218      -0.00115806      -0.00239421      -0.00110023
H        0.68913820      -1.32153167      -0.46064634       0.00029969       0.00187254       0.00066310
H        0.95682416      -1.68186011       1.25199487      -0.00254569       0.00036575      -0.00337803
H       -0.60615922      -0.02303966       1.96537369       0.00136580      -0.00549470      -0.00074919
H       -1.34382771      -0.45137062       0.43123690      -0.00560329       0.00367015      -0.00284935
H       -0.14935472       2.10070286       1.18714580      -0.00122321       0.00316685      -0.00027679
H       -0.79538583       1.71486909      -0.39980374      -0.00199739       0.00227924      -0.00041084
H        1.30074766       1.04890006      -1.25185889       0.00501840       0.00090269       0.00088545
H        1.92429466       2.14668853      -0.00848904       0.00246200      -0.00097450      -0.00026540
C        2.01177832       0.37118821       4.14382228      -0.00547601       0.00481761      -0.00294213
O        1.77490781       1.34585803       3.15735744      -0.00570911      -0.00081863      -0.00622178
C        1.51372010       0.85235258       5.48312523       0.00044950       0.00433285      -0.00314424
C        1.15439212      -0.06947166       6.45996633      -0.00179297      -0.00183338      -0.00340532
C        0.73003490       0.35765020       7.70706315       0.00735283      -0.00114824       0.00106526
C        0.67484823       1.71731450       7.94780859       0.00014065      -0.00533532       0.00667314
N        0.21981838       2.18649461       9.27529273      -0.00400518      -0.00699358       0.00266551
O       -0.07681219       1.34074804      10.09134343       0.00203089      -0.00975960      -0.00002824
O        0.17605055       3.38378541       9.45582738       0.00191710       0.00668208       0.00119546
C        1.02032390       2.65594254       6.99496139      -0.00007832      -0.00331476       0.00363211
C        1.44365044       2.21393703       5.75221659      -0.00131062       0.00330964       0.00315381
H        1.48958941      -0.55967409       3.89056296      -0.00252316       0.00193060       0.00700228
H        1.18656495      -1.13201634       6.24529889       0.00496565       0.00255266       0.00495859
H        0.43750892      -0.33665688       8.48063708      -0.00065034       0.00501514      -0.00124262
H        0.95186713       3.70718891       7.23192506      -0.00392357       0.00133556      -0.00082216
H        1.70129024       2.92741324       4.98251904       0.00366087       0.00755009      -0.00430343
