53
Properties=species:S:1:pos:R:3:forces:R:3 Atoms:=T 53,=T ConfID:=T 0=T 1=T spin=1 charge=1 energy=-30761.41964635713 free_energy=-30761.41964635713 stress="0.04359683021903038 -0.051309820264577866 0.02294106036424637 -0.051309820264577866 0.04410964250564575 -0.04797114059329033 0.02294106036424637 -0.04797114059329033 -0.08912818878889084" pbc="F F F"
C        4.17398630       0.72833253       3.21620100      -0.00282198      -0.00011525      -0.00119913
C        3.85369291      -0.72379061       3.43302848       0.00006737      -0.00055051       0.00033872
C        3.84711393      -1.21367770       4.68076975      -0.00153431       0.00062853       0.00203129
N        3.47908015      -1.46592916       2.30614615      -0.00050641      -0.00118033       0.00168591
C        3.43943281      -2.93656366       2.41906577      -0.00278078       0.00243074       0.00254806
C        4.11971423      -3.44760007       1.15537391       0.00036083       0.00113370      -0.00059535
C        3.77340639      -2.37391356       0.13780301      -0.00061973      -0.00085215      -0.00342344
C        3.88373675      -1.07755283       0.94500382      -0.00324122      -0.00139141      -0.00461493
C        3.06309055       0.07815811       0.35740348      -0.00118294       0.00400140      -0.00234711
N        1.62120490       0.03849267       0.73678133       0.00091982       0.00182241      -0.00106469
H        1.57229501      -0.26142548       1.72526319       0.00022918      -0.00086482      -0.00345351
C        0.72635274      -0.89872971      -0.05040652       0.00357469      -0.00221745       0.00071902
C       -0.56452350      -0.11788704      -0.32681738       0.00119780      -0.00286710       0.00031250
C       -0.50784383       1.07964096       0.62399440       0.00244554       0.00262043      -0.00123832
C        0.97258318       1.39363308       0.66948340      -0.00048681       0.00078827      -0.00127075
H        4.53585054       1.16282141       4.14385773       0.00280744       0.00503947       0.00138446
H        4.93820714       0.88382667       2.45363538      -0.00026106       0.00151250      -0.00117984
H        3.27664583       1.28322458       2.92329778      -0.00178412       0.00104782      -0.00001238
H        4.13811974      -0.57060842       5.49793212      -0.00686200       0.00078721      -0.00307525
H        3.58858285      -2.23197199       4.92783156      -0.00006720       0.00339595      -0.00100564
H        3.97077689      -3.26213096       3.31012770      -0.00294666       0.00151931      -0.00429131
H        2.40572545      -3.28647954       2.49680219       0.00072892       0.00001619       0.00089419
H        5.19938279      -3.48821336       1.30872517       0.00389548       0.00121369      -0.00109641
H        3.78260187      -4.44061413       0.86596927      -0.00250700      -0.00006085       0.00145490
H        4.42867703      -2.35803651      -0.73198276      -0.00424758       0.00186633       0.00146942
H        2.75244150      -2.52486571      -0.21585983       0.00762670      -0.00116406       0.00015337
H        4.92859078      -0.74575083       0.92577283       0.00128888      -0.00349035       0.00001667
H        3.12623706       0.07439853      -0.73164054       0.00128482      -0.00032773       0.00160248
H        3.43836535       1.03585219       0.70856794       0.00260032      -0.00256979       0.00292984
H        1.24473470      -1.18460033      -0.96122069       0.00226630       0.00530233      -0.00066641
H        0.56687996      -1.78562138       0.55880763       0.00168480      -0.00219581       0.00019852
H       -1.44468391      -0.73678736      -0.17207264      -0.00066354      -0.00402894       0.00186108
H       -0.57682336       0.22326185      -1.36178260       0.00004599      -0.00397534      -0.00187979
H       -0.85983624       0.81071743       1.61938904       0.00482211       0.00172749      -0.00179708
H       -1.08920188       1.92679890       0.26769029      -0.00221180       0.00159014       0.00055405
H        1.31526047       1.87334713      -0.24843440      -0.00319217      -0.00566595      -0.00322720
H        1.29820370       1.97238050       1.53037743      -0.00191475      -0.00128815      -0.00090593
C        0.95311052      -0.27085451       4.54308530      -0.00638984       0.00003164       0.00141662
O        0.79209907       0.02210376       3.37274294      -0.00129032       0.00028291      -0.00106471
C        1.09666872       0.72532360       5.61823398       0.00170064      -0.00175782       0.00447836
C        1.29756431       0.28801776       6.92325784      -0.00108965      -0.00037776       0.00288325
C        1.43974490       1.20758735       7.94897261      -0.00279755       0.00320355       0.00251611
C        1.37216353       2.55020628       7.62993784       0.00315176       0.00075027      -0.00230141
N        1.52857531       3.54481193       8.72013930       0.00834722       0.00124183       0.00101624
O        1.69409525       3.11525547       9.83982449      -0.00346379       0.00302238       0.00030986
O        1.48309061       4.71497929       8.40970883      -0.00408346      -0.00778388       0.00405782
C        1.16493123       3.01493412       6.34195834      -0.00221893      -0.00072103       0.00101433
C        1.02645540       2.08658332       5.32867721       0.00063917      -0.00305102       0.00035982
H        0.97077887      -1.32510760       4.85640064      -0.00798892       0.00091558       0.00009628
H        1.34722810      -0.77294001       7.13590586       0.00378879      -0.00114899      -0.00089718
H        1.59742622       0.90659482       8.97374898       0.00129062       0.00204763      -0.00108312
H        1.11143785       4.07782444       6.15997872       0.00806020       0.00026375       0.00352189
H        0.85081905       2.40475556       4.30983470       0.00432918      -0.00055666       0.00186589
