53
Properties=species:S:1:pos:R:3:forces:R:3 Atoms:=T 53,=T ConfID:=T 1=T 0=T spin=1 charge=1 energy=-30761.874445532394 free_energy=-30761.874445532394 stress="0.013376356102526188 -0.027710726484656334 -0.06503071635961533 -0.027710726484656334 0.03711134195327759 -0.0037490983959287405 -0.06503071635961533 -0.0037490983959287405 0.04900616779923439" pbc="F F F"
C       -1.65826623      -2.37980847       6.23277901      -0.00041700       0.00064983       0.00063407
C       -0.52218212      -1.46677380       5.89306385      -0.00344631       0.00380109       0.00051340
C        0.48090657      -1.19355710       6.96683058       0.00113363      -0.00003417      -0.00379121
N       -0.49433145      -0.93193812       4.71886286       0.00084769       0.00161641       0.00051408
C       -1.61366336      -1.14955314       3.75808460      -0.00153110      -0.00325480       0.00152834
C       -1.38760090      -0.12260903       2.66295047      -0.00149059      -0.00176780       0.00120837
C        0.12603564      -0.00579245       2.63308100       0.00028021       0.00036056       0.00547072
C        0.51809312       0.01012184       4.10518267       0.00582573       0.00187295       0.00277027
C        1.99741179      -0.31990726       4.33253092       0.00485412       0.00490165       0.00122679
N        2.62415599       0.55930896       5.30766740      -0.00112579       0.00200833       0.00496998
H        1.31784942       1.08920544       6.53479353       0.00022354       0.00424979       0.00183197
C        3.94862003       0.09523514       5.74308422      -0.00150187      -0.00105171       0.00112251
C        4.53451905       1.30465199       6.47383597      -0.00122960      -0.00340483      -0.00472286
C        3.80795160       2.52111038       5.85182593       0.00048919      -0.00430818      -0.00234062
C        2.88843921       1.91333840       4.79276896       0.00026083      -0.00010071      -0.00049000
H       -2.57906148      -1.79906512       6.34067761       0.00032265      -0.00199058       0.00027746
H       -1.82148488      -3.11828963       5.44714808       0.00254497       0.00263496       0.00003175
H       -1.47355920      -2.88844264       7.17296665      -0.00319220      -0.00277303      -0.00085612
H        1.49102963      -1.09639924       6.58282424       0.00535250      -0.00090422       0.00154888
H        0.45997752      -2.02665115       7.66745630       0.00608693       0.00202424      -0.00089344
H       -2.56278037      -1.03512833       4.27553845      -0.00582970      -0.00441738      -0.00070686
H       -1.54076144      -2.17005695       3.37779341       0.00067353      -0.00265077      -0.00638866
H       -1.84039783       0.83068427       2.93944824       0.00070651       0.00066478      -0.00399317
H       -1.82086627      -0.44357853       1.71903328       0.00141998       0.00081092      -0.00358211
H        0.48783507       0.88986817       2.13130548       0.00073895      -0.00201214       0.00243618
H        0.57269284      -0.87292619       2.13836211      -0.00731964      -0.00019342       0.00148478
H        0.28851247       0.98550491       4.53497124      -0.00396924      -0.00368803       0.00654250
H        2.11651150      -1.36148821       4.63926541      -0.00715921       0.00580646       0.00286351
H        2.51126024      -0.23256272       3.36451418      -0.00563137       0.00211690      -0.00577594
H        4.56090183      -0.16841847       4.86884811       0.00082399       0.00063107       0.00406834
H        3.85865628      -0.79457529       6.36923033       0.00296825       0.00022634       0.00189987
H        5.61389755       1.35468775       6.34918041      -0.00252441      -0.00155833       0.00065188
H        4.33271769       1.24183175       7.54240792       0.00293631       0.00019153      -0.00636052
H        4.49450325       3.24069898       5.41152985       0.00038891      -0.00471799       0.00050365
H        3.22254682       3.04726367       6.60484573       0.00339011      -0.00180581      -0.00285051
H        1.96212889       2.47408931       4.65687436       0.00295802       0.00443219       0.00212064
H        3.39567514       1.84834757       3.81903975      -0.00058842       0.00186906      -0.00181251
C        0.14897764       0.12259835       7.73451225      -0.00155475      -0.00230101       0.00381654
O        0.42634380       1.23115957       6.92759707      -0.00259497       0.00084924       0.00458833
C       -1.29817154       0.14696306       8.16580441      -0.00508089      -0.00138628       0.00072783
C       -1.70780179      -0.64773867       9.23255927      -0.00445833      -0.00029625       0.00051414
C       -3.04439782      -0.72012096       9.58549541      -0.00267612       0.00444657       0.00028571
C       -3.95645052       0.01860087       8.85330219      -0.00210008      -0.00326827      -0.00280777
N       -5.39053628      -0.06459297       9.20894043       0.00325750      -0.00508019      -0.00488876
O       -6.16870475       0.56332551       8.52358903       0.00637852       0.00172037      -0.00203547
O       -5.68794220      -0.76148818      10.15413492       0.00335438      -0.00090165      -0.00001718
C       -3.57692700       0.83817905       7.80815395      -0.00136057       0.00186283       0.00213359
C       -2.23349789       0.90090601       7.46620571      -0.00308724       0.00032540      -0.00074319
H        0.78365036       0.11366199       8.62845783       0.00962995       0.00001096      -0.00074404
H       -0.97684598      -1.21334767       9.79969646      -0.00272827       0.00626046       0.00310620
H       -3.38600502      -1.32667796      10.41138019       0.00075697      -0.00000201      -0.00466438
H       -4.32520306       1.41772894       7.28730479       0.00119051      -0.00315568      -0.00225823
H       -1.90435976       1.55242113       6.66836523       0.00280323       0.00068075       0.00133090
