53
Properties=species:S:1:pos:R:3:forces:R:3 Atoms:=T 53,=T ConfID:=T 0=T 1=T spin=1 charge=1 energy=-30761.182605837417 free_energy=-30761.182605837417 stress="-0.04916592314839363 0.02111191675066948 -0.01725798472762108 0.02111191675066948 0.00803916435688734 0.022770756855607033 -0.01725798472762108 0.022770756855607033 0.038295235484838486" pbc="F F F"
C       -1.53963458      -1.57234270       5.37982014       0.00264417      -0.00139815      -0.00065151
C       -0.22006241      -1.55411709       4.65642894       0.00049364       0.00312913      -0.00519280
C        0.70945924      -2.47896882       4.90497076      -0.00063646      -0.00137151       0.00415293
N       -0.09649789      -0.46182722       3.75261899      -0.00260474      -0.00055286      -0.00534496
C       -0.96212567      -0.59625146       2.55891471      -0.00105037       0.00075174      -0.00482849
C       -0.12839670      -1.42146859       1.55715267      -0.00346212       0.00284381       0.00706175
C        1.34072091      -1.10608877       1.92283487       0.00204727       0.00507788       0.00403741
C        1.18994016      -0.14883890       3.11819615      -0.00149007       0.00026027       0.00087725
C        2.38703620      -0.02640791       4.04158625      -0.00122544      -0.00212650      -0.00094796
N        2.04956168       0.73694664       5.27557439      -0.00072774       0.00263787      -0.00313015
H        1.32207470       0.21819339       5.78748111       0.00807964      -0.00268530       0.00136609
C        3.21800604       0.88712891       6.23030156      -0.00141189      -0.00166474      -0.00030929
C        3.22121800       2.35643311       6.65891283       0.00446551      -0.00134465       0.00391325
C        1.81613435       2.85565641       6.31665522       0.00411030      -0.00127162      -0.00046448
C        1.50634929       2.11758587       5.02861701      -0.00506055       0.00453992      -0.00166897
H       -1.77371115      -0.58509648       5.77961650      -0.00386686       0.00128524      -0.00015535
H       -2.35465689      -1.85725840       4.71363425      -0.00240379       0.00014962      -0.00274927
H       -1.52059758      -2.30078324       6.18897214      -0.00468756      -0.00124810       0.00649175
H        1.62408738      -2.57712604       4.34257731      -0.00348568       0.00161078       0.00672007
H        0.52697038      -3.22630926       5.66447102       0.00404288      -0.00406836       0.00211199
H       -1.16278334       0.40298312       2.16803128      -0.00105111       0.00106058       0.00348982
H       -1.91393591      -1.05367584       2.81000496       0.00389773      -0.00033328      -0.00369747
H       -0.36787544      -1.16199429       0.52761767       0.00348962      -0.00029849       0.00426880
H       -0.33039185      -2.48401384       1.68379175      -0.00469332       0.00034128       0.00160574
H        1.88518582      -0.63186815       1.10739882       0.00107537       0.00176488      -0.00702128
H        1.88448317      -2.01038267       2.19585725       0.00245957      -0.00336552      -0.00025366
H        1.02781690       0.84833235       2.69257338      -0.00206135      -0.00240608       0.00191800
H        2.78797173      -0.98240497       4.36347021       0.00896065      -0.00008165      -0.00273966
H        3.18114902       0.52156331       3.53194762       0.00206317      -0.00535329       0.00024461
H        4.12536746       0.58792043       5.71169211      -0.00332809      -0.00456649      -0.00230151
H        3.03930147       0.20444579       7.05682116       0.00140854       0.00131433       0.00428068
H        3.96814255       2.91228887       6.09184579      -0.00265013       0.00005378      -0.00680859
H        3.46193925       2.46163788       7.71384095       0.00083973      -0.00037113       0.00848942
H        1.77156835       3.93419641       6.18268395      -0.00403918      -0.00335167       0.00102599
H        1.10223470       2.57148254       7.08972050       0.00290079      -0.00060136      -0.00536542
H        0.45334779       2.03329028       4.77372529      -0.00820069      -0.00119342      -0.00114982
H        2.05819313       2.53693061       4.18592861       0.00296506      -0.00065972       0.00002056
C       -0.12741319      -0.61718710       8.27895296      -0.00049169       0.00070386       0.00008664
O        0.36601361       0.11897732       7.44802202       0.00038817       0.00534642       0.00338409
C       -1.33424723      -0.29151530       9.05310967       0.00056963       0.00229332      -0.00155980
C       -1.76834644      -1.17808679      10.03375586       0.00083973       0.00213211      -0.00301487
C       -2.89741207      -0.88499833      10.78193733       0.00169275      -0.00073395      -0.00095127
C       -3.56303211       0.29464870      10.51374695       0.00131514      -0.00144091      -0.00124728
N       -4.77426299       0.61917594      11.30901866       0.00000206      -0.00497261       0.00032466
O       -5.34455854       1.65477512      11.04619606       0.00214717      -0.00240148      -0.00016379
O       -5.10308231      -0.17438059      12.16178326      -0.00304093      -0.00399133       0.00249071
C       -3.15814700       1.19266799       9.53937102      -0.00022956       0.00242052      -0.00054681
C       -2.02876372       0.89226041       8.80512815       0.00149519       0.00412061       0.00024525
H        0.32916929      -1.59916487       8.49123212       0.00232401       0.00073711      -0.00220249
H       -1.22146651      -2.09494752      10.21796149       0.00042772       0.00340022      -0.00470639
H       -3.26259143      -1.54337598      11.55559871      -0.00035206      -0.00279268      -0.00198246
H       -3.72539263       2.09688454       9.37836208      -0.00384665       0.00253848       0.00164222
H       -1.67404933       1.56447875       8.03564400      -0.00104711       0.00613301       0.00090607
