53
Properties=species:S:1:pos:R:3:forces:R:3 Atoms:=T 53,=T ConfID:=T 1=T 0=T spin=1 charge=1 energy=-30761.881356333328 free_energy=-30761.881356333328 stress="-0.020041361451148987 -0.006814929656684399 0.00754809333011508 -0.006814929656684399 -0.010627302341163158 0.05374103784561157 0.00754809333011508 0.05374103784561157 -0.03733131289482117" pbc="F F F"
C        0.74468590       2.19833584       2.33509670      -0.00044907      -0.00051132      -0.00079583
C        1.42342475       0.87224603       2.28009357      -0.00208691       0.00080199       0.00185805
C        2.64493759       0.70281511       3.10892120      -0.00370974      -0.00344817      -0.00035411
N        1.04450507      -0.04274596       1.45798565       0.00001641       0.00036353       0.00099024
C        1.56838898      -1.43272514       1.42645654      -0.00175057       0.00120546       0.00064936
C        0.43565199      -2.20379632       0.77055822       0.00095597      -0.00058507       0.00211364
C       -0.07872399      -1.22990225      -0.28357304       0.00053299      -0.00012610       0.00368574
C        0.03912625       0.15445126       0.36648348       0.00165346      -0.00034163       0.00554392
C        0.43843777       1.28463155      -0.59749654       0.00016726      -0.00221732      -0.00000247
N        1.86944091       1.41763410      -0.83766390       0.00089734       0.00117274       0.00047567
H        3.21668906       1.06699947       0.45523539       0.00533041      -0.00513936       0.00241528
C        2.43797737       0.45166834      -1.79942741      -0.00048431      -0.00081732      -0.00048774
C        3.77134428       1.07452606      -2.23177971       0.00114963       0.00183128       0.00011915
C        3.64062408       2.57305827      -1.88239492       0.00076530       0.00239854       0.00146403
C        2.19213951       2.72717763      -1.43648350      -0.00136090       0.00176675      -0.00322678
H        0.77533168       2.57442313       3.35590772       0.00371914      -0.00013083      -0.00254069
H        1.28971489       2.90959310       1.70787084      -0.00178340      -0.00363269      -0.00260851
H       -0.28714144       2.16141597       1.99754943       0.00005973       0.00091671       0.00097237
H        2.89387514      -0.33617691       3.30394500       0.00412671      -0.00507894      -0.00195368
H        2.53913814       1.22717139       4.05768892      -0.00233672       0.00190540      -0.00095492
H        1.79319682      -1.76641506       2.43456606       0.00047386      -0.00143644      -0.00298942
H        2.48578506      -1.43906919       0.83688251      -0.00375285       0.00004224       0.00082765
H       -0.33848253      -2.42701414       1.50637031       0.00188838      -0.00070782       0.00251598
H        0.78082115      -3.14484527       0.34899070      -0.00060412      -0.00047700       0.00011749
H        0.53848846      -1.27779421      -1.17919934      -0.00534732      -0.00260067      -0.00167369
H       -1.10534528      -1.42914643      -0.58311202      -0.00072463       0.00224729       0.00525014
H       -0.90896816       0.41628240       0.84056973      -0.00058474       0.00332564       0.00124723
H       -0.10877919       1.10681068      -1.53484918       0.00207605       0.00184587      -0.00447912
H        0.08071871       2.23962052      -0.21519835       0.00066778      -0.00282094       0.00278971
H        2.57120793      -0.52851757      -1.34122760       0.00310207      -0.00010603       0.00574912
H        1.75922542       0.33669980      -2.65584093      -0.00552298       0.00515015      -0.00175235
H        3.94273281       0.91162436      -3.29348926      -0.00078895       0.00128383      -0.00108208
H        4.60205255       0.62427643      -1.69213638       0.00394179       0.00050410      -0.00216492
H        4.31709587       2.83223402      -1.06832356       0.00154507       0.00427620       0.00181387
H        3.87198314       3.22344844      -2.72253766       0.00114098       0.00091051       0.00044257
H        1.53569692       2.92139445      -2.29602889      -0.00154786      -0.00556696      -0.00699437
H        2.03766315       3.52696888      -0.71008815       0.00135214       0.00184373      -0.00173759
C        3.83438269       1.32585770       2.30053558      -0.00100116       0.00152842      -0.00815994
O        3.92759786       0.71841484       1.03898084      -0.00085602      -0.00236998      -0.00797173
C        5.11013828       1.11388720       3.07732122      -0.00285090      -0.00010727      -0.00031329
C        5.47189656       2.01976446       4.06774314       0.00063619      -0.00110637       0.00246735
C        6.62015491       1.82085844       4.81574481       0.00144803      -0.00385730       0.00176909
C        7.38888401       0.70422929       4.54898508       0.00193702      -0.00310887       0.00099319
N        8.62008746       0.48347924       5.33933969      -0.00029173       0.00062127       0.00064287
O        8.89005267       1.30611434       6.18728538      -0.00084234       0.00165169       0.00448031
O        9.27270892      -0.50561275       5.08536052      -0.00049177      -0.00125788       0.00062473
C        7.05697160      -0.21007650       3.56781165      -0.00184993      -0.00111169      -0.00010234
C        5.90494593       0.00128664       2.82804364      -0.00092758       0.00055423      -0.00047474
H        3.65947925       2.40409148       2.20293401       0.00017782       0.00619901       0.00128676
H        4.86490759       2.89906596       4.25077226      -0.00325822      -0.00006247       0.00024032
H        6.92866368       2.51306593       5.58482304      -0.00003126      -0.00018659      -0.00014808
H        7.69653566      -1.06264641       3.39397074       0.00273056       0.00503191      -0.00154125
H        5.63330079      -0.68729977       2.04010319       0.00274378      -0.00046535       0.00096375
