53
Properties=species:S:1:pos:R:3:forces:R:3 Atoms:=T 53,=T ConfID:=T 0=T 1=T spin=1 charge=1 energy=-30761.434260939193 free_energy=-30761.434260939193 stress="0.06477442383766174 -0.006239397916942835 -0.03527607023715973 -0.006239397916942835 -0.026482243090867996 -0.03274855390191078 -0.03527607023715973 -0.03274855390191078 -0.0986187681555748" pbc="F F F"
C        0.33539478       2.39054953       2.19158971       0.00073203      -0.00116107       0.00252726
C        1.22592614       1.22870658       2.54019964      -0.00224085      -0.00405300      -0.00077476
C        1.89174785       1.23226903       3.70426026       0.00022658      -0.00140734      -0.00228554
N        1.37377031       0.23668137       1.56895328      -0.00068800      -0.00284737      -0.00124993
C        1.99296824      -1.04511695       1.94009397       0.00173242      -0.00030163       0.00043736
C        1.11141682      -2.10523536       1.29004423       0.00462192       0.00230498       0.00002028
C        0.61075376      -1.40812692       0.03383698      -0.00035125      -0.00243779       0.00102040
C        0.39656860       0.03978455       0.48871602      -0.00334388       0.00012489      -0.00003177
C        0.52710247       1.06643459      -0.64544465       0.00374394       0.00397399      -0.00349421
N        1.93407390       1.49341159      -0.89205374       0.00399383       0.00626175      -0.00502095
H        2.38696036       1.62352085       0.02824434       0.00179834       0.00345822      -0.00419742
C        2.82012956       0.51513045      -1.61609394      -0.00003419       0.00081359      -0.00255375
C        3.89455357       1.39226549      -2.23142714      -0.00114959      -0.00396922      -0.00414606
C        3.10055962       2.60370461      -2.71886052       0.00292810      -0.00112436       0.00139526
C        2.03653720       2.81050521      -1.64114517       0.00352761       0.00824190      -0.00342987
H        0.21365332       3.02982086       3.06120561       0.00168474       0.00002013       0.00334599
H        0.77226939       3.00277767       1.39629462       0.00363002      -0.00230528       0.00185228
H       -0.65792333       2.07749645       1.86749798      -0.00093500      -0.00083805       0.00888617
H        2.57104941       0.45237225       4.01268513      -0.00141919      -0.00019193      -0.00192832
H        1.72869662       2.04322512       4.39856789       0.00348513      -0.00161250      -0.00160025
H        2.01212885      -1.15752640       3.02149906       0.00115528       0.00614299       0.00015844
H        3.02683559      -1.08948346       1.58140625       0.00004770      -0.00282395       0.00023814
H        0.27386233      -2.33871596       1.94971372       0.00565460      -0.00041137      -0.00606232
H        1.64560864      -3.03054481       1.08422464      -0.00268190       0.00080838       0.00116571
H        1.36370291      -1.46419012      -0.75308158      -0.00114411      -0.00414340       0.00062195
H       -0.30919146      -1.83242251      -0.36527869       0.00257736      -0.00734648      -0.00268996
H       -0.62722421       0.13295438       0.86702637      -0.00567472       0.00328326       0.00318952
H        0.12847539       0.66343725      -1.57777649      -0.00175814      -0.00012850      -0.00036289
H       -0.02679094       1.97094025      -0.40823829       0.00310709       0.00440388      -0.00406770
H        3.18956116      -0.21460295      -0.90067364      -0.00449294      -0.00154929      -0.00207130
H        2.21572228       0.02071019      -2.37718422       0.00065557      -0.00170885       0.00010486
H        4.42092092       0.87907391      -3.03301658      -0.00374133      -0.00462991      -0.00445303
H        4.61866885       1.67935915      -1.46937995      -0.00580829      -0.00709733      -0.00194691
H        3.71681913       3.49083060      -2.84338492      -0.00310712      -0.00223742      -0.00516812
H        2.62867161       2.38743405      -3.67778680       0.00040238       0.00135568       0.00657377
H        1.05773950       3.05456488      -2.04555390      -0.00041346      -0.00270265      -0.00012973
H        2.31705982       3.56831549      -0.91258008       0.00186147      -0.00101436       0.00600123
C        4.31225024       2.09098669       2.09014032      -0.00343144       0.00193935       0.00120381
O        3.95444208       1.79723634       0.96436692       0.00320517       0.00505618      -0.00035411
C        5.29822952       1.31604379       2.86217245      -0.00202124       0.00369724       0.00404104
C        5.61952909       1.73357563       4.14939551       0.00279617       0.00138966       0.00216581
C        6.54002245       1.02165180       4.90033024       0.00383487      -0.00145914       0.00088785
C        7.11482961      -0.09703302       4.32939506      -0.00177326      -0.00276564      -0.00016236
N        8.09959619      -0.86933602       5.12671619       0.00044791      -0.00241948       0.00012989
O        8.36028619      -0.45449698       6.23368399       0.00301172      -0.00279485       0.00465217
O        8.56969173      -1.86045161       4.61264547      -0.00082140       0.00243589      -0.00064741
C        6.81813020      -0.53414740       3.04899596      -0.00075841       0.00204855      -0.00198460
C        5.89807505       0.18499412       2.31107558      -0.00317096       0.00489435       0.00283242
H        3.91890640       2.99181402       2.58347706      -0.00509733       0.00175549       0.00170714
H        5.14543932       2.61386745       4.56628928      -0.00050757      -0.00005102      -0.00105901
H        6.81537484       1.31444433       5.90225329      -0.00048997       0.00097904       0.00142642
H        7.30858445      -1.41341857       2.65896632      -0.00246666      -0.00037760       0.00041942
H        5.64320137      -0.11419818       1.30307695      -0.00133992       0.00252154       0.00486793
