53
Properties=species:S:1:pos:R:3:forces:R:3 Atoms:=T 53,=T ConfID:=T 1=T 0=T spin=1 charge=1 energy=-30761.87542972429 free_energy=-30761.87542972429 stress="0.05381554365158081 -0.0283840149641037 0.02912602573633194 -0.0283840149641037 -0.03802240267395973 0.0012278022477403283 0.02912602573633194 0.0012278022477403283 0.08160006999969482" pbc="F F F"
C       -4.27954639       1.81170482       1.64432535      -0.00030539      -0.00008274      -0.00099184
C       -3.43817290       0.58509588       1.80434465       0.00108481       0.00057074      -0.00513336
C       -4.14412376      -0.73217920       1.81456787       0.00345389       0.00024249       0.00228530
N       -2.15686005       0.72402154       1.87384209       0.00056302      -0.00195472      -0.00052420
C       -1.52894387       2.06681982       1.70640172      -0.00316814       0.00221441       0.00072742
C       -0.04768413       1.78202113       1.53155448      -0.00163344       0.00175599      -0.00036824
C        0.14659468       0.53373790       2.37346658      -0.00453661      -0.00240982      -0.00212148
C       -1.07299433      -0.31857387       2.04567423      -0.00099593      -0.00687623       0.00161498
C       -1.32860280      -1.41846962       3.08168363       0.00157475      -0.00704379      -0.00070582
N       -1.66922166      -2.69465336       2.47143375      -0.00371163      -0.00191453      -0.00395322
H       -2.54349370      -2.34753051       0.85762292       0.00047398      -0.00260261      -0.00331923
C       -0.51708654      -3.37929328       1.86118785       0.00023961       0.00022953       0.00062754
C       -1.04945857      -4.78468828       1.58427364       0.00013580       0.00271141       0.00423437
C       -2.14168852      -4.99976031       2.65902164       0.00233939       0.00424013       0.00321005
C       -2.18260302      -3.68026788       3.43285456      -0.00156835       0.00104599      -0.00072512
H       -3.99414092       2.58420418       2.35922117       0.00157472      -0.00332778      -0.00015183
H       -5.33055697       1.57459750       1.77058186      -0.00116316       0.00402721       0.00010297
H       -4.14643276       2.22249883       0.63905197      -0.00083624       0.00063562       0.00150420
H       -3.68949176      -1.44740770       2.49214220      -0.00132113      -0.00471272       0.00359450
H       -5.17128816      -0.56320776       2.13334656       0.00226509      -0.00547153       0.00249766
H       -1.72568599       2.64818851       2.60902680       0.00414421       0.00312305       0.00428203
H       -1.97922769       2.57409024       0.85703398      -0.00186931       0.00701606      -0.00019636
H        0.56107975       2.62452519       1.84987991       0.00389339       0.00044595       0.00175623
H        0.17584732       1.57610502       0.48378448       0.00351788       0.00043257       0.00114522
H        0.15126950       0.78013445       3.43905587      -0.00170253       0.00516051      -0.00505249
H        1.06369988      -0.00864255       2.15055969      -0.00317766      -0.00018098       0.00100522
H       -0.95356866      -0.76369724       1.05784830      -0.00781701       0.00304932      -0.00185270
H       -2.11562330      -1.11645904       3.77635186      -0.00025159       0.00175724      -0.00947460
H       -0.41787964      -1.52388652       3.68842337       0.00561497       0.00573905      -0.00262805
H        0.32012095      -3.40643209       2.57395833       0.00259718      -0.00004297      -0.00126226
H       -0.18046632      -2.86325745       0.96040972       0.00062122      -0.00536032      -0.00194694
H       -1.47725973      -4.83633056       0.58377896       0.00186274      -0.00084936       0.00464488
H       -0.25514080      -5.52576126       1.63773830      -0.00302783       0.00149372       0.00327487
H       -3.10512894      -5.20246101       2.19317510       0.00571283       0.00005726       0.00419071
H       -1.91786997      -5.83482264       3.31910468      -0.00155137       0.00269292      -0.00056577
H       -3.18185248      -3.40236949       3.77366543      -0.00111885      -0.00297153       0.00069000
H       -1.52660044      -3.72251636       4.31403410      -0.00308037      -0.00268224      -0.00169461
C       -4.15240600      -1.37983816       0.39569352      -0.00444920       0.00098202      -0.00095061
O       -2.87324126      -1.84695513       0.07666964      -0.00345260       0.00050934      -0.00427115
C       -4.61778616      -0.39313623      -0.64825801      -0.00207732       0.00477510      -0.00239743
C       -5.96815419      -0.06409972      -0.72430759      -0.00114119       0.00384920      -0.00266024
C       -6.40765667       0.90966601      -1.60444974       0.00161608       0.00009157      -0.00490412
C       -5.47186757       1.54142561      -2.40385730       0.00075729       0.00436750       0.00181865
N       -5.92680714       2.59853732      -3.33431916       0.00177099       0.00166043       0.00740935
O       -5.07666862       3.16776360      -3.98456028       0.00308053      -0.00529305       0.00333256
O       -7.11553777       2.82807374      -3.37408865      -0.00008622      -0.00235499       0.00266630
C       -4.12964222       1.21709840      -2.37087646      -0.00066186      -0.00053515      -0.00284095
C       -3.70384555       0.23817066      -1.48403251       0.00016762       0.00256942      -0.00173337
H       -4.87463109      -2.20312845       0.44940737       0.00153672      -0.00749337       0.00626762
H       -6.68786930      -0.57615947      -0.09523791       0.00009167      -0.00232165      -0.00734682
H       -7.45043345       1.17956106      -1.68497338       0.00420484       0.00085484       0.00236695
H       -3.44367672       1.72061081      -3.03646372       0.00042476       0.00140889       0.00397811
H       -2.66304134      -0.05350565      -1.45322770      -0.00061530      -0.00322747       0.00054525
