53
Properties=species:S:1:pos:R:3:forces:R:3 Atoms:=T 53,=T ConfID:=T 0=T 1=T spin=1 charge=1 energy=-30760.968388651443 free_energy=-30760.968388651443 stress="0.07620882987976074 -0.0028737608809024096 0.09028477221727371 -0.0028737608809024096 0.02922026254236698 -0.017603449523448944 0.09028477221727371 -0.017603449523448944 0.01145514752715826" pbc="F F F"
C       -1.95060933       1.77833183       0.30323867       0.00071337      -0.00423369      -0.00252504
C       -2.01551970       1.09631023       1.64045017      -0.00455508       0.00197746      -0.00348956
C       -3.09660545       1.18584161       2.41495387      -0.00187064      -0.00539036      -0.00002440
N       -0.82269259       0.36826179       1.94117422      -0.00388907       0.00542040       0.00061675
C        0.25053954       1.23537431       2.47002797       0.00340100      -0.00004928      -0.00333250
C        0.01362982       1.28385406       3.99109683       0.00027815      -0.00559882      -0.00223521
C       -0.65464988      -0.06792039       4.31606366      -0.00202947       0.00172194       0.00635483
C       -0.82870221      -0.72101138       2.92634668      -0.00108966       0.00547853      -0.00027454
C       -1.97338727      -1.70793984       2.85241505       0.00101257       0.00204804      -0.00122504
N       -1.91909570      -2.65340454       1.68925487       0.00058985       0.00020042      -0.00173067
H       -2.87695822      -3.00996997       1.59530203      -0.00024262       0.00245667       0.00366660
C       -1.60081368      -2.07847406       0.34009215       0.00115795      -0.00177422      -0.00238651
C       -1.46746866      -3.33446506      -0.49976446       0.00019373       0.00134103      -0.00417604
C       -0.68628005      -4.29587964       0.41523985      -0.00033798       0.00187692      -0.00070362
C       -0.98717933      -3.82227022       1.84722901      -0.00255877      -0.00076043       0.00118414
H       -1.09818612       2.45743525       0.25053876      -0.00290228      -0.00241568      -0.00564673
H       -2.85436768       2.35321228       0.10958737       0.00814828      -0.00462282       0.00088878
H       -1.81284577       1.04315659      -0.49297261      -0.00423472      -0.00165463       0.00254069
H       -3.14991079       0.76632039       3.40925436      -0.00519884      -0.00313129       0.00232893
H       -3.96056628       1.73852984       2.07092061       0.00549010       0.00321148       0.00227028
H        0.23056304       2.21394094       1.99797004      -0.00419273      -0.00443317       0.00225937
H        1.21249015       0.77012614       2.24317195       0.00117730       0.00055775      -0.00480756
H       -0.65240153       2.10856084       4.23994684      -0.00081157       0.00295423       0.00184494
H        0.94129292       1.43206923       4.54059741      -0.00130954       0.00746490      -0.00523992
H       -1.61453476       0.07108143       4.81539750       0.00493012      -0.00200436       0.00490766
H       -0.04336302      -0.69619614       4.96373435      -0.00293670       0.00137855       0.00040978
H        0.09984370      -1.27118747       2.72361513       0.00059430       0.00102346       0.00346122
H       -2.93367450      -1.20682816       2.78468722      -0.00255230      -0.00595760      -0.00260432
H       -1.97078820      -2.32942193       3.74848118      -0.00301722      -0.00028168      -0.00170204
H       -0.67011944      -1.52191947       0.42415617      -0.00250991      -0.00000347       0.00224281
H       -2.40039266      -1.39777676       0.05624418       0.00183000      -0.00372646      -0.00017006
H       -2.45712144      -3.73406878      -0.73054873      -0.00100686      -0.00222541       0.00327157
H       -0.95613710      -3.14369173      -1.44001006       0.00402470       0.00144232      -0.00341943
H       -0.98128135      -5.33140707       0.26561343       0.00218830       0.00311494      -0.00533603
H        0.38219771      -4.22687641       0.22027718       0.00062178      -0.00527784       0.00389943
H       -1.47710474      -4.56512624       2.47259630       0.00108900      -0.00067115       0.00078776
H       -0.09829136      -3.46560464       2.36287909      -0.00341801       0.00367682      -0.00452411
C       -5.60418896      -1.75956976       1.12557583       0.00206997       0.00197594       0.00094491
O       -4.62270091      -2.47527657       1.11468720      -0.00420457      -0.00592645      -0.00001716
C       -5.96291346      -0.83826873       0.03590782       0.00186423      -0.00188238       0.00154272
C       -7.00909088       0.05676697       0.23339942       0.00305118      -0.00096678       0.00248215
C       -7.33848767       0.96873695      -0.75713372       0.00398750       0.00216185       0.00429040
C       -6.60648125       0.94490068      -1.92719617      -0.00009009       0.00320762       0.00072091
N       -6.94153573       1.92565195      -2.99036237       0.00023881       0.00242177      -0.00085910
O       -6.26502192       1.90085264      -3.99479014       0.00189655      -0.00318608      -0.00042676
O       -7.86169389       2.68122009      -2.77365299      -0.00270320      -0.00073706       0.00181739
C       -5.57324309       0.05126763      -2.16083116       0.00062629       0.00249071       0.00068009
C       -5.25060091      -0.84656431      -1.16342626       0.00126887       0.00213471       0.00100247
H       -6.28263805      -1.76467840       1.99484442       0.00013193       0.00183857      -0.00322559
H       -7.56262407       0.04549774       1.16435258      -0.00236156       0.00078917      -0.00018174
H       -8.13892932       1.68344884      -0.63837441      -0.00012235      -0.00029609      -0.00081460
H       -5.05283243       0.07488313      -3.10657479       0.00531045       0.00119211       0.00170146
H       -4.45987727      -1.57066812      -1.30813548       0.00225886       0.00164899       0.00296016
