53
Properties=species:S:1:pos:R:3:forces:R:3 Atoms:=T 53,=T ConfID:=T 1=T 0=T spin=1 charge=1 energy=-30761.915062044693 free_energy=-30761.915062044693 stress="0.009955352172255516 -0.019796013832092285 0.010123328305780888 -0.019796013832092285 -0.09473125636577606 0.004409146495163441 0.010123328305780888 0.004409146495163441 0.06156352162361145" pbc="F F F"
C        0.62098010      -0.24619374      -1.22989703      -0.00141730       0.00119190      -0.00060017
C        1.52701070      -1.42282559      -1.35050839       0.00440219       0.00453531      -0.00033257
C        2.53340580      -1.60343140      -0.27215149       0.00456415       0.00140238      -0.00005348
N        1.54609337      -2.19036586      -2.38302984      -0.00124005      -0.00278337       0.00576012
C        2.34903981      -3.44473410      -2.48065435      -0.00195905      -0.00366930      -0.00254989
C        1.85952553      -4.13218364      -3.76100329      -0.00424158      -0.00312885      -0.00039705
C        0.59769216      -3.36113829      -4.17052007       0.00006050       0.00392886       0.00478096
C        0.87298315      -1.94539440      -3.68098662       0.00233254       0.00105937       0.00720270
C        1.86164353      -1.21809247      -4.60226032      -0.00035017      -0.00009863      -0.00210297
N        2.33947436       0.04784526      -4.08015028       0.00076730       0.00106381       0.00476284
H        3.48786117      -0.34993137      -2.52009734       0.00247598      -0.00187379      -0.00394723
C        3.54030295       0.52728374      -4.79626287       0.00105485       0.00238764       0.00469591
C        3.68448634       1.97345834      -4.32282116      -0.00135856       0.00316642       0.00078753
C        2.24656395       2.39513078      -3.93718373      -0.00067705       0.00573973      -0.00119812
C        1.39934087       1.16503750      -4.25707788       0.00052295       0.00319942       0.00189886
H       -0.25691297      -0.30412249      -1.86425102      -0.00117023       0.00251802      -0.00395402
H        0.30405951      -0.15113230      -0.19246367       0.00126730      -0.00425207       0.00216418
H        1.17608012       0.65913394      -1.48772868       0.00089782       0.00104990       0.00215323
H        2.10808391      -1.36640877       0.70232516      -0.00119340       0.00122131      -0.00308332
H        2.94812440      -2.60681581      -0.24217648       0.00329966      -0.00030798       0.00581117
H        2.14595711      -4.03997010      -1.59291570       0.00513971      -0.00119053      -0.00349732
H        3.40564538      -3.18388457      -2.50010615      -0.00445420      -0.00372555      -0.00479718
H        1.65381731      -5.18464163      -3.58413939      -0.00454668      -0.00434917      -0.00323843
H        2.62002297      -4.07843309      -4.53737500      -0.00213026      -0.00474057       0.00146220
H       -0.28390560      -3.76034825      -3.66836465      -0.00076707      -0.00233448      -0.00386063
H        0.41468477      -3.38989121      -5.24309219       0.00110640       0.00143749       0.00620023
H       -0.02922947      -1.35942421      -3.53162525       0.00067223      -0.00095856      -0.00045421
H        1.36972143      -1.09500897      -5.57803109      -0.00026688      -0.00193303      -0.00801211
H        2.72819834      -1.86327920      -4.76288261       0.00035482      -0.00312611       0.00005818
H        3.36830231       0.48597629      -5.88052217       0.00598123      -0.00399174       0.00544740
H        4.40244791      -0.09846797      -4.56291753      -0.00162106      -0.00167698       0.00065661
H        4.10784148       2.60328695      -5.10176821       0.00098332      -0.00040758       0.00065900
H        4.34986036       2.02809517      -3.46200695       0.00043604       0.00054852      -0.00183571
H        2.18688496       2.63856705      -2.87544309       0.00029980      -0.00104213       0.00006163
H        1.90101049       3.26810993      -4.48606203      -0.00262711       0.00583181      -0.00245308
H        0.51933306       1.06440782      -3.62302490      -0.00323900      -0.00019155      -0.00346643
H        1.05466303       1.19207870      -5.30116117       0.00048813       0.00171028       0.00259999
C        3.70208443      -0.60424565      -0.58240481       0.00065457      -0.00216503       0.00295168
O        4.13659774      -0.76085212      -1.91144575      -0.00582787       0.00642918      -0.00271127
C        4.83734320      -0.88282564       0.37076036      -0.00096198      -0.00221238       0.00382445
C        4.82936732      -0.31062218       1.63777206       0.00051207       0.00049562       0.00060798
C        5.83787675      -0.59572978       2.54332805      -0.00206929       0.00125909       0.00015337
C        6.84349946      -1.45890426       2.15288858      -0.00406029       0.00175955      -0.00462157
N        7.92646882      -1.77024974       3.11192128      -0.00525194       0.00035242       0.00025148
O        7.87582489      -1.23589886       4.19841358       0.00039808      -0.00326047      -0.00085352
O        8.78768002      -2.54010398       2.74519779      -0.00108749       0.00321038       0.00364649
C        6.88078233      -2.03691254       0.89858836       0.00116469       0.00077461      -0.00372612
C        5.86571532      -1.74281317       0.00296495       0.00034178       0.00238542       0.00033113
H        3.33820371       0.41526010      -0.41023272       0.00492194      -0.00230977      -0.00535797
H        4.04027112       0.37639595       1.92170998      -0.00085110      -0.00499183      -0.00459268
H        5.85984015      -0.15813958       3.53018414       0.00003821      -0.00088555       0.00037620
H        7.69416654      -2.69817884       0.63964453       0.00605322       0.00308363      -0.00108266
H        5.88405743      -2.16472469      -0.99231014       0.00217798      -0.00013552       0.00347363
