53
Properties=species:S:1:pos:R:3:forces:R:3 Atoms:=T 53,=T ConfID:=T 0=T 1=T spin=1 charge=1 energy=-30761.524292563034 free_energy=-30761.524292563034 stress="0.0004687285399995744 0.028960999101400375 0.0030917078256607056 0.028960999101400375 -0.004199029412120581 0.02931847609579563 0.0030917078256607056 0.02931847609579563 0.025859449058771133" pbc="F F F"
C        0.33838965      -0.28480264      -1.30806666      -0.00123566      -0.00426594       0.00021179
C        1.31328468      -1.37965371      -0.97574297       0.00078331       0.00291358       0.00095394
C        1.57095833      -1.66796116       0.30792130      -0.00327466       0.00267185      -0.00260515
N        1.98159034      -2.01185201      -2.02982994       0.00244326       0.00182938       0.00130933
C        2.65970551      -3.28334369      -1.71576390       0.00087091      -0.00002059       0.00264116
C        2.71110120      -4.05491305      -3.03019777      -0.00051676       0.00011278       0.00354991
C        1.47824223      -3.53805818      -3.77075602       0.00052402      -0.00106330       0.00148586
C        1.47266721      -2.05106920      -3.40701304      -0.00016591      -0.00013071       0.00407507
C        2.41422954      -1.30869639      -4.35908014       0.00019963      -0.00339276       0.00048005
N        2.57223230       0.12260651      -4.00260071       0.00120453      -0.00224840      -0.00093386
H        2.68528053       0.18262962      -2.97721000      -0.00211003      -0.00333920      -0.00056480
C        3.79261639       0.77813744      -4.58184829       0.00185091       0.00203085       0.00251810
C        3.52314983       2.28341873      -4.46229329      -0.00318634       0.00317466      -0.00284034
C        2.01886498       2.40502672      -4.13010774       0.00134581       0.00273952      -0.00172541
C        1.45694219       1.02467407      -4.42693849      -0.00003950      -0.00172394       0.00403009
H       -0.46729620      -0.61603935      -1.96485566       0.00155431       0.00270444       0.00405319
H       -0.11933558       0.07706772      -0.39122433      -0.00107226      -0.00106398      -0.00058316
H        0.84086335       0.56704992      -1.77418685      -0.00075432      -0.00528003      -0.00180342
H        1.03671074      -1.14361458       1.08629098      -0.00039438       0.00196998      -0.00401032
H        2.28009657      -2.42024634       0.61797424       0.00051352       0.00214442      -0.00014719
H        2.06184339      -3.82973717      -0.97994027      -0.00106296      -0.00049826      -0.00105583
H        3.64469645      -3.10938248      -1.27992203       0.00235828       0.00191782       0.00210788
H        2.68391408      -5.12968822      -2.86609422      -0.00072517       0.00150785      -0.00178269
H        3.62483534      -3.83726745      -3.58577666       0.00249427      -0.00108330      -0.00253592
H        0.57594417      -4.00607147      -3.37548869       0.00278306       0.00066512      -0.00131356
H        1.50482817      -3.71427401      -4.84616321       0.00128533       0.00206467       0.00064725
H        0.47319426      -1.62496804      -3.47391184      -0.00148704       0.00184840      -0.00047194
H        2.05759677      -1.35587749      -5.38893889       0.00043338      -0.00201206      -0.00145698
H        3.40701065      -1.75603435      -4.31242898       0.00002582      -0.00138590       0.00044706
H        3.86595356       0.44764288      -5.61743040       0.00011498      -0.00045570      -0.00005800
H        4.66236012       0.43155751      -4.02991545      -0.00196547       0.00079101       0.00406325
H        3.77001432       2.78248790      -5.39669359       0.00539537      -0.00409307       0.00281934
H        4.13095810       2.72502557      -3.67695250      -0.00216574       0.00373758      -0.00258193
H        1.88220398       2.63862799      -3.07437224      -0.00324442       0.00425212      -0.00078107
H        1.51579005       3.17335958      -4.71158660       0.00154195      -0.00115904      -0.00399006
H        0.54319071       0.77118583      -3.89786657      -0.00019999       0.00260121      -0.00170378
H        1.31300973       0.85877390      -5.49574730      -0.00190329       0.00026604       0.00183770
C        3.68256222       0.58409211      -0.30783652       0.00068448       0.00107993      -0.00459791
O        3.54567045       0.83489386      -1.49020651      -0.00325174       0.00291965      -0.00202468
C        4.69069856      -0.34753219       0.22648547      -0.00401793      -0.00404993      -0.00221944
C        4.76334763      -0.54114191       1.60152472       0.00293416       0.00262432       0.00169751
C        5.68931389      -1.42471110       2.13071964      -0.00142325      -0.00272726      -0.00115250
C        6.52021694      -2.09471966       1.25380622      -0.00277580      -0.00362122       0.00004239
N        7.50639389      -3.05478529       1.80825691       0.00191506       0.00225532       0.00152109
O        7.54938103      -3.16810527       3.01245779       0.00148233      -0.00510052      -0.00311464
O        8.19424469      -3.65868905       1.01426055       0.00034748       0.00071647       0.00026392
C        6.47684324      -1.91651969      -0.11918570      -0.00056671       0.00021984      -0.00105903
C        5.54984524      -1.02988281      -0.63217045       0.00097677       0.00159492      -0.00035487
H        3.04641546       1.08219372       0.44036490       0.00271572      -0.00502511       0.00123147
H        4.08806692      -0.00572741       2.25757289       0.00170076      -0.00127488       0.00497249
H        5.77417491      -1.60165575       3.19236850       0.00134382      -0.00000959       0.00015281
H        7.16151060      -2.46465425      -0.74921301      -0.00077902      -0.00081433       0.00164689
H        5.48455812      -0.85502279      -1.69781020      -0.00350496       0.00248515      -0.00129111
