53
Properties=species:S:1:pos:R:3:forces:R:3 Atoms:=T 53,=T ConfID:=T 1=T 0=T spin=1 charge=1 energy=-30761.79507980211 free_energy=-30761.79507980211 stress="-0.02644382230937481 0.01592465117573738 -0.030550483614206314 0.01592465117573738 0.08864223957061768 0.004359000362455845 -0.030550483614206314 0.004359000362455845 0.008510595187544823" pbc="F F F"
C       -5.28380337       5.02097629      -3.80355626      -0.00016522       0.00075331       0.00050810
C       -4.58863542       5.42623817      -2.54911447       0.00011505      -0.00638209       0.00247429
C       -3.11297018       5.60825806      -2.61057429      -0.00071942      -0.00471489       0.00146658
N       -5.26124315       5.61903319      -1.46679753       0.00078973       0.00241473       0.00212442
C       -6.74377241       5.55194840      -1.42270574       0.00262962      -0.00309406      -0.00700252
C       -7.10421763       6.50706354      -0.29851388      -0.00280891      -0.00484913      -0.00616531
C       -5.98791176       6.27139515       0.70905556      -0.00244006       0.00452040       0.00189326
C       -4.72401108       6.07789193      -0.13706761      -0.00009092      -0.00217081       0.00713028
C       -3.67151245       5.17185144       0.52759117      -0.00065577      -0.00492718      -0.00082527
N       -3.78098687       3.74847108       0.26443849      -0.00239013      -0.00348782      -0.00800956
H       -3.51895908       3.31463162      -1.44314820       0.00147112      -0.00615844       0.00037076
C       -4.95190663       3.06751108       0.83664048       0.00111487      -0.00173853      -0.00088709
C       -4.59793299       1.57949864       0.74338396       0.00084298      -0.00010186       0.00079342
C       -3.05369905       1.54672535       0.68857873       0.00408281       0.00093349       0.00162438
C       -2.64178577       3.00743073       0.84053724      -0.00219471       0.00341694      -0.00060522
H       -5.84867595       5.87149093      -4.19722387       0.00489896       0.00224217      -0.00271889
H       -4.55920989       4.71558652      -4.55270003       0.00204921      -0.00289317       0.00501140
H       -5.97702994       4.20078759      -3.62413200       0.00203922       0.00012761      -0.00232037
H       -2.72848661       6.09222322      -1.71873518       0.00017341      -0.00251705       0.00107297
H       -2.89918644       6.25816528      -3.46217208       0.00047271      -0.00701686       0.00252835
H       -7.15773601       5.83250579      -2.38560034      -0.00564313       0.00283474      -0.00400404
H       -7.03613883       4.52409229      -1.19952607      -0.00815347       0.00094198      -0.00062858
H       -7.09051255       7.53458993      -0.66578615       0.00141916      -0.00269411       0.00170464
H       -8.09411320       6.30500121       0.10301154      -0.00293886       0.00140679       0.00252310
H       -5.85771906       7.09694635       1.40521725       0.00296419       0.00399164       0.00838812
H       -6.18812047       5.37501159       1.29544175       0.00031773       0.00041568      -0.00532447
H       -4.26412367       7.05217985      -0.31616568      -0.00436000      -0.00473367      -0.00014486
H       -2.66933147       5.47681832       0.22423282      -0.00115044       0.00067950       0.00247088
H       -3.73727420       5.38014641       1.60725557       0.00155573       0.00270729      -0.00286794
H       -5.86206645       3.31572626       0.29053980       0.00269407       0.00750537       0.00520850
H       -5.08709835       3.37256322       1.88482895       0.00088469      -0.00042538      -0.00319893
H       -5.02523770       1.13741690      -0.15528295       0.00312138       0.00562937      -0.00384957
H       -4.99602257       1.03213129       1.59489481      -0.00442606       0.00355427       0.00248807
H       -2.61912792       0.92712208       1.46920275      -0.00014809      -0.00007244       0.00658145
H       -2.71300717       1.15792324      -0.26977483      -0.00019789      -0.00069589      -0.00243798
H       -2.51788381       3.27656127       1.89859632       0.00581532      -0.00131409       0.00100787
H       -1.71935764       3.26025885       0.31542920      -0.00080582      -0.00014574       0.00258706
C       -2.45088283       4.20050136      -2.82241073       0.00338869       0.00294128      -0.00672412
O       -3.33180356       3.18549279      -2.40672544       0.00226532       0.00535741      -0.00271556
C       -2.04139862       3.96029319      -4.25987137       0.00666017      -0.00508358      -0.00330558
C       -1.15439124       4.84243697      -4.87433101       0.00087354      -0.00032465       0.00056070
C       -0.74720916       4.64023826      -6.18013332       0.00056999       0.00415222       0.00332549
C       -1.24274508       3.54099159      -6.85809218       0.00099674       0.00343534       0.00520978
N       -0.81775066       3.31783200      -8.25706033      -0.00628938       0.00125809       0.00188685
O       -0.04440903       4.11880692      -8.73637741      -0.00260945      -0.00102900      -0.00005246
O       -1.27394239       2.35133038      -8.82830597       0.00141651       0.00141692      -0.00240415
C       -2.11187222       2.64279891      -6.27427703      -0.00068369       0.00163122      -0.00061477
C       -2.50924844       2.85627318      -4.96138581       0.00035507      -0.00132182      -0.00251347
H       -1.53784042       4.19187934      -2.21442899      -0.00226213      -0.00242848      -0.00226086
H       -0.75991754       5.69113842      -4.32649729       0.00057244       0.00100848      -0.00725338
H       -0.05697821       5.30813521      -6.67357360       0.00001899      -0.00048942       0.00135347
H       -2.46105080       1.79297922      -6.84209583      -0.00198665      -0.00008271       0.00582334
H       -3.17615881       2.15843572      -4.47647391      -0.00344897       0.00561638       0.00071754
