53
Properties=species:S:1:pos:R:3:forces:R:3 Atoms:=T 53,=T ConfID:=T 0=T 1=T spin=1 charge=1 energy=-30761.270124052597 free_energy=-30761.270124052597 stress="-0.049852821975946426 0.036494847387075424 -0.02384578436613083 0.036494847387075424 -0.04895447567105293 0.05030161142349243 -0.02384578436613083 0.05030161142349243 0.07171041518449783" pbc="F F F"
C       -5.01674725       5.35126177      -3.84721962      -0.00301243       0.00271890       0.00272960
C       -4.40983031       5.92474605      -2.59616984       0.00179202       0.00238295       0.00155239
C       -3.32695994       6.71501850      -2.65500469       0.00345745      -0.00030790      -0.00498500
N       -5.02404074       5.53006643      -1.41257865       0.00172968       0.00305699       0.00123909
C       -6.48142744       5.34391191      -1.33044716       0.00250173       0.00055614       0.00117991
C       -6.84793930       5.92000955       0.03501592      -0.00209822       0.00262731      -0.00028633
C       -5.60665107       5.63127774       0.87501249      -0.00166626       0.00250803       0.00001085
C       -4.47067090       5.89697842      -0.11665644       0.00082917       0.00068094       0.00017618
C       -3.13345020       5.22175136       0.16144472       0.00259987      -0.00110185      -0.00161488
N       -3.10265901       3.71858562       0.25472330       0.00083135      -0.00401887       0.00020845
H       -2.20192847       3.47021330      -0.17174243       0.00107203      -0.00667143       0.00123820
C       -4.08420590       2.88613664      -0.52715674       0.00093081      -0.00678666      -0.00233874
C       -3.76939997       1.49578841      -0.00954123       0.00520253      -0.00192621       0.00445955
C       -3.61236062       1.70754527       1.50486320       0.00220185       0.00128811       0.00357962
C       -3.12514292       3.15718090       1.65453806       0.00073242      -0.00133039       0.00335283
H       -5.96983747       5.82521147      -4.08535109      -0.00323713       0.00681809       0.00267862
H       -4.35031181       5.50777078      -4.69297600      -0.00170164      -0.00217493      -0.00122227
H       -5.20337284       4.28059114      -3.73771320       0.00241032      -0.00115424      -0.00319925
H       -2.89924547       7.20960474      -1.79472255      -0.00005697      -0.00589104      -0.00669199
H       -2.89926756       6.95112126      -3.61821981       0.00337412       0.00032751       0.00006160
H       -6.99216778       5.86303024      -2.13843068      -0.00165115      -0.00267790       0.00270251
H       -6.74836405       4.28276147      -1.39975878      -0.00049224       0.00197550      -0.00375351
H       -6.99278351       6.99820396      -0.04752743      -0.00689616       0.00427466      -0.00005720
H       -7.75783106       5.48765604       0.44574748      -0.00079790      -0.00396118      -0.00122716
H       -5.52503219       6.25884633       1.76110606       0.00152411       0.00170482      -0.00045073
H       -5.61740910       4.59114815       1.20819740      -0.00311978       0.00267656       0.00166399
H       -4.23877560       6.97270291      -0.08804095       0.00006446       0.00077108      -0.00500854
H       -2.44541166       5.47136557      -0.64181714       0.00210408       0.00557670      -0.00218673
H       -2.71393795       5.59689936       1.09495893      -0.00351577      -0.00380029       0.00210488
H       -3.91435682       3.04674411      -1.58673985      -0.00231138       0.00167775      -0.00386502
H       -5.09010682       3.19687817      -0.26476468       0.00085864      -0.00401005      -0.00125186
H       -2.83793250       1.13951174      -0.45446814      -0.00110906      -0.00279013      -0.00403512
H       -4.55237129       0.78206566      -0.25545579       0.00452215       0.00469694       0.00160719
H       -4.57022988       1.58579295       2.00848878       0.00123416      -0.00109989      -0.00182488
H       -2.91569702       1.00143107       1.94931198      -0.00296030      -0.00218780       0.00187343
H       -3.79834289       3.77189605       2.24633229      -0.00569476      -0.00160825      -0.00475631
H       -2.12300669       3.24887235       2.06757348       0.00230187       0.00162163      -0.00289487
C       -1.19665462       4.15823359      -2.90263352       0.00040585       0.00331534      -0.00027901
O       -1.44241469       3.47085201      -1.93068472      -0.00067809      -0.00260572       0.00926291
C       -1.69732304       3.87472675      -4.25829223      -0.00304703       0.00133970      -0.00091470
C       -1.40973141       4.77365211      -5.28003044      -0.00120982       0.00309448      -0.00078093
C       -1.89847820       4.55359464      -6.55746657       0.00266828      -0.00375576      -0.00164711
C       -2.66493074       3.42418222      -6.77099575      -0.00176846      -0.00072340       0.00195322
N       -3.20106740       3.18063332      -8.13382745      -0.00329298       0.00204087       0.00535917
O       -2.91580795       3.98567271      -8.99156362      -0.00135399       0.00354880       0.00439134
O       -3.88872658       2.19527883      -8.28676765      -0.00251356       0.00048495      -0.00163498
C       -2.95697866       2.50522851      -5.77651026      -0.00151011       0.00007108       0.00112125
C       -2.46425773       2.73801167      -4.50704591       0.00305754      -0.00227716       0.00014133
H       -0.56605047       5.05656999      -2.80510678       0.00102547       0.00576399       0.00049496
H       -0.80699226       5.65012588      -5.07495724       0.00380729      -0.00007258       0.00283003
H       -1.69714808       5.22954881      -7.37510366      -0.00299234      -0.00388464      -0.00086000
H       -3.55384989       1.63681518      -6.01228154       0.00381119      -0.00083691      -0.00171113
H       -2.65877386       2.04003225      -3.70328735       0.00163737       0.00005548       0.00150552
