53
Properties=species:S:1:pos:R:3:forces:R:3 Atoms:=T 53,=T ConfID:=T 1=T 0=T spin=1 charge=1 energy=-30761.75923356874 free_energy=-30761.75923356874 stress="-0.07585636526346207 0.06010830029845238 -0.0621788464486599 0.06010830029845238 -0.01549758855253458 0.025832630693912506 -0.0621788464486599 0.025832630693912506 -0.017584485933184624" pbc="F F F"
C        5.93396955       1.50566969      -0.25242504       0.00075252      -0.00011857       0.00028698
C        5.55333283       2.38485365       0.89150559       0.00508196       0.00396008      -0.00009137
C        6.48888506       2.39909274       2.05270329       0.00285232      -0.00206190       0.00014924
N        4.49263125       3.11165037       0.80957578      -0.00035657      -0.00246395       0.00414325
C        3.72753219       3.33662329      -0.44482135      -0.00034643      -0.00021306       0.00185612
C        3.09339083       4.72805287      -0.26315803      -0.00141541      -0.00029107      -0.00317646
C        3.60649785       5.24011663       1.09520287      -0.00138192      -0.00016013       0.00038981
C        3.90440573       3.96260885       1.86863947      -0.00289469      -0.00188826       0.00429247
C        2.60954262       3.32881517       2.40131118      -0.00570964      -0.00107836       0.00223051
N        2.75341502       1.96159673       2.87512430      -0.00433233      -0.00114265      -0.00109377
H        4.34174476       1.75426935       3.57835938       0.00268417       0.00172016       0.00013722
C        2.39673545       0.91671306       1.90453093      -0.00140191      -0.00183650      -0.00214836
C        2.32569357      -0.35693935       2.74790985      -0.00086319      -0.00054629      -0.00156903
C        1.98409459       0.13909638       4.17216440       0.00268578       0.00133392      -0.00153412
C        1.89729186       1.65831777       4.03989796      -0.00048340      -0.00087461      -0.00110550
H        5.08302337       1.16651137      -0.83719399       0.00020660      -0.00137380       0.00082019
H        6.61825013       2.05201504      -0.90949447      -0.00076857      -0.00004088      -0.00048372
H        6.48092971       0.64361203       0.12678297       0.00257198       0.00027453       0.00096590
H        6.50517220       3.36236038       2.56018402       0.00313436      -0.00227388      -0.00229199
H        7.48059365       2.21976840       1.63334122      -0.00021611      -0.00239314      -0.00261107
H        4.41434662       3.29700926      -1.28542132      -0.00396184      -0.00158650       0.00216947
H        2.98570574       2.54620990      -0.56153104      -0.00029901       0.00430687      -0.00606558
H        2.00857701       4.65104053      -0.27239553      -0.00325180       0.00534284       0.00157787
H        3.37611876       5.39223600      -1.07568964       0.00000310       0.00084714      -0.00365244
H        4.52001090       5.82220982       0.97318506      -0.00008937       0.00216362       0.00133890
H        2.87861484       5.86429789       1.61005052      -0.00689253       0.00012892      -0.00394129
H        4.61582263       4.07283366       2.68203345       0.00337604       0.00180900       0.00003834
H        1.81553829       3.39738911       1.64533058      -0.00379484      -0.00052725      -0.00163354
H        2.29888376       3.96238520       3.23369217       0.00533370       0.00523329       0.00290000
H        1.42022893       1.14445252       1.45185438      -0.00244065      -0.00192915       0.00135070
H        3.13128911       0.84773249       1.10025540       0.00188563       0.00065168       0.00032557
H        3.28588558      -0.87253556       2.74291566       0.00014419       0.00267092       0.00043168
H        1.58484164      -1.04884219       2.35346410      -0.00229260      -0.00032929       0.00007498
H        2.77129911      -0.13663679       4.87145436       0.00070266       0.00328611       0.00124638
H        1.05121001      -0.27778876       4.54467717       0.00474000       0.00146439      -0.00114575
H        0.86620955       1.97814299       3.83904623      -0.00048878      -0.00184117       0.00066889
H        2.25844790       2.19335295       4.91807574      -0.00037443      -0.00125971      -0.00142579
C        6.20708069       1.31413935       3.13942249       0.00060621      -0.00155870      -0.00136009
O        5.22536487       1.75706600       4.02589480       0.00083674       0.00613066      -0.00515993
C        7.49403255       1.04818267       3.88830432       0.00237249      -0.00383491      -0.00195836
C        7.74808256       1.67911495       5.09871043       0.00113772      -0.00476338      -0.00173223
C        8.95237035       1.46745084       5.75280566       0.00246592       0.00035401      -0.00076838
C        9.88058248       0.62325766       5.17636004      -0.00147086       0.00079359       0.00291225
N       11.16877570       0.40093909       5.86814558       0.00184338       0.00477912       0.00027903
O       11.96351349      -0.34438851       5.33616744      -0.00409448      -0.00119041       0.00017691
O       11.34396869       0.98202010       6.91705639       0.00067583      -0.00466962      -0.00028482
C        9.65049650      -0.02611426       3.97758532       0.00219645       0.00152440       0.00081845
C        8.44443848       0.19486010       3.33673373       0.00003345      -0.00515533       0.00215508
H        5.90350605       0.38426040       2.63722693       0.00210739      -0.00369296       0.00459443
H        6.99806785       2.32268339       5.53564264      -0.00336182      -0.00301727      -0.00133196
H        9.17705996       1.94329837       6.69563018       0.00282099       0.00081027       0.00477023
H       10.40111364      -0.68920784       3.57408666      -0.00158218       0.00202208       0.00106359
H        8.23956630      -0.31879283       2.40333330       0.00131403       0.00250554       0.00240115
