53
Properties=species:S:1:pos:R:3:forces:R:3 Atoms:=T 53,=T ConfID:=T 0=T 1=T spin=1 charge=1 energy=-30761.481400583816 free_energy=-30761.481400583816 stress="-0.033352915197610855 -0.03209463134407997 -0.02324726991355419 -0.03209463134407997 0.02647683583199978 -0.0230347141623497 -0.02324726991355419 -0.0230347141623497 -0.002702410565689206" pbc="F F F"
C        5.21497029       1.79840823      -1.33011005      -0.00063318      -0.00193705      -0.00266689
C        5.17929834       2.18181508       0.12249651       0.00476718      -0.00284241      -0.00695473
C        5.97079878       1.56611665       1.01437406       0.00112666       0.00300179       0.00059474
N        4.23504156       3.15033454       0.44616328       0.00385260      -0.00565910      -0.00611009
C        3.84314280       4.16479129      -0.54867573       0.00000882       0.00047116       0.00168516
C        3.04896552       5.16939643       0.26969726       0.00013447       0.00003848       0.00624204
C        3.80057698       5.17382508       1.59945917       0.00530893      -0.00554768       0.00316538
C        4.16451309       3.69602270       1.79784898       0.00173888      -0.00840206      -0.00441603
C        3.08472286       3.03524746       2.65571045      -0.00410913       0.00264040       0.00150093
N        3.11187303       1.54100658       2.69554770       0.00327519       0.00011720       0.00352835
H        4.08489857       1.23129841       2.80913357       0.00800797      -0.00169167      -0.00117127
C        2.54069337       0.83152883       1.47775022      -0.00183180       0.00128036       0.00248125
C        1.62254909      -0.26408824       2.02831157      -0.00231794      -0.00263962      -0.00151038
C        2.04954640      -0.42317298       3.48822624      -0.00034680      -0.00146860      -0.00230834
C        2.36605022       1.00197104       3.88618397      -0.00120979      -0.00033715       0.00115051
H        4.22156399       1.51545319      -1.68500823       0.00175219       0.00175856       0.00158331
H        5.55833563       2.62790524      -1.94998417      -0.00890421      -0.00159211       0.00264113
H        5.89134157       0.96166854      -1.48158997       0.00330049       0.00732406       0.00332726
H        6.02410444       1.83818251       2.05794223       0.00402320      -0.00027359       0.00275124
H        6.65068511       0.79810251       0.67610127      -0.00762728      -0.00072582       0.00002565
H        4.72586082       4.64376256      -0.98628699       0.00149039      -0.00097376      -0.00045120
H        3.26246275       3.72164195      -1.35639804      -0.00267734      -0.00311738       0.00561025
H        2.02147579       4.82341659       0.40385163      -0.00291444      -0.00095948      -0.00180431
H        3.00874750       6.14977777      -0.19950539       0.00342012      -0.00194241      -0.00234947
H        4.71412904       5.76236714       1.51247421       0.00004500       0.00412620      -0.00404678
H        3.22235941       5.58026689       2.42974700       0.00022393       0.00188937      -0.00264648
H        5.12998359       3.60141925       2.30035347      -0.00212129       0.00362616       0.00447133
H        2.08815902       3.31199779       2.30829697      -0.00793183       0.00302131      -0.00286081
H        3.19526969       3.37721178       3.68550304      -0.00291440      -0.00030070       0.00661330
H        2.02695233       1.56745569       0.86679793       0.00353097       0.00294902      -0.00239100
H        3.38504202       0.44321963       0.91496259      -0.00412062       0.00412404      -0.00271088
H        1.71544457      -1.18408751       1.45633224       0.00558219      -0.00167810      -0.00538291
H        0.58099879       0.05368698       1.97670398      -0.00162499       0.00212122       0.00156260
H        2.94594807      -1.03930818       3.57527983       0.00312479       0.00197208      -0.00795348
H        1.27414505      -0.85796253       4.11461265      -0.00047424       0.00219864       0.00000564
H        1.45965207       1.59906523       3.99342098      -0.00291419       0.00081294       0.00611978
H        2.99304721       1.11678625       4.76596884       0.00073738      -0.00287865       0.00014517
C        6.41567597      -0.09106637       4.24919270      -0.00099771       0.00046107      -0.00102944
O        5.37254588       0.51206102       4.09054981      -0.00505325      -0.00657878       0.00049689
C        7.64506242       0.50857605       4.78725095       0.00073823      -0.00049413       0.00312350
C        7.65343883       1.83286332       5.22450603      -0.00094605       0.00184661      -0.00113471
C        8.81706389       2.38513898       5.72011402       0.00179337      -0.00169130      -0.00399722
C        9.95221204       1.59095899       5.76015306       0.00141950       0.00243203       0.00047498
N       11.20681589       2.18454256       6.28719602      -0.00021779       0.00128309       0.00052823
O       12.18318833       1.47017037       6.32304639      -0.00060715       0.00063590       0.00012118
O       11.16158983       3.34193020       6.64150219       0.00492594       0.00129358       0.00185508
C        9.97548578       0.27746090       5.33547767      -0.00118168       0.00364745       0.00177829
C        8.79898578      -0.26616557       4.84546371       0.00211397      -0.00273374       0.00054745
H        6.48463430      -1.15742486       3.97594271      -0.00243170       0.00062132       0.00072807
H        6.74127487       2.41200046       5.17868847       0.00104809       0.00793820       0.00173037
H        8.86593627       3.40396159       6.07425634       0.00396320      -0.00555344      -0.00469567
H       10.89191393      -0.29038119       5.39405456      -0.00453272       0.00397274       0.00127474
H        8.77899611      -1.29409885       4.50516204      -0.00081240      -0.00558613       0.00072823
