53
Properties=species:S:1:pos:R:3:forces:R:3 Atoms:=T 53,=T ConfID:=T 1=T 0=T spin=1 charge=1 energy=-30761.92092857225 free_energy=-30761.92092857225 stress="0.038056880235672 -0.0081415930762887 -0.001636349130421877 -0.0081415930762887 0.0038469145074486732 -0.028677118942141533 -0.001636349130421877 -0.028677118942141533 0.038560327142477036" pbc="F F F"
C       -4.85306785       5.30486238       0.33949773       0.00121208       0.00140026      -0.00191539
C       -4.14761515       5.46610436      -0.96198919       0.00107926       0.00029953      -0.00048940
C       -3.85338053       6.85213977      -1.41952774       0.00123013       0.00048901       0.00074926
N       -3.69855502       4.46789635      -1.63894043       0.00091081       0.00134868      -0.00250534
C       -3.09976471       4.57233567      -3.00335071       0.00179613       0.00373307      -0.00086723
C       -2.94428133       3.12476071      -3.48359591       0.00187265       0.00246914       0.00054645
C       -3.74520308       2.28684163      -2.47970984       0.00028791       0.00055958      -0.00052467
C       -3.60055083       3.06263760      -1.17708558      -0.00155345      -0.00068545      -0.00364722
C       -2.21363712       2.86611969      -0.55370705      -0.00448945      -0.00092693       0.00023559
N       -1.98380358       3.66010106       0.63979397      -0.00093210      -0.00073659       0.00025557
H       -1.79515534       5.60471824      -0.12088658      -0.00233378       0.00776643       0.00174874
C       -0.55172544       3.65362295       1.01747878      -0.00312012      -0.00209081      -0.00035440
C       -0.52820812       4.03924701       2.50400388      -0.00440127      -0.00007194      -0.00037509
C       -1.98559840       3.86625870       2.97915141      -0.00271693      -0.00079283      -0.00090128
C       -2.64805932       3.11439217       1.83446746       0.00068441      -0.00040925      -0.00040009
H       -5.57201424       6.11331423       0.45878124      -0.00170993      -0.00284720      -0.00440507
H       -5.36323937       4.35076133       0.43352015      -0.00051351       0.00269008       0.00196494
H       -4.12736397       5.39865660       1.15199836      -0.00103287      -0.00272813      -0.00083199
H       -3.64379245       6.89215381      -2.48357082      -0.00026198       0.00327950       0.00032618
H       -4.69397987       7.50779430      -1.20528240      -0.00124691      -0.00149675      -0.00100478
H       -2.15832374       5.11374949      -2.93432363       0.00461970      -0.00125321      -0.00120776
H       -3.78977673       5.13497896      -3.62855599      -0.00126473      -0.00176630       0.00079392
H       -1.89563392       2.83434969      -3.48557660       0.00187985      -0.00399939       0.00042471
H       -3.31280444       3.00889875      -4.49966589      -0.00062681      -0.00008688       0.00247938
H       -4.79647867       2.23593473      -2.76523499       0.00380584      -0.00214533       0.00325573
H       -3.37242263       1.26859814      -2.38763315      -0.00465033       0.00215021       0.00272037
H       -4.38658140       2.84773369      -0.45882969       0.00243263      -0.00214914      -0.00064778
H       -2.09613606       1.79119988      -0.34894124       0.00458332       0.00076815       0.00054321
H       -1.45366278       3.13402190      -1.29197985      -0.00532637      -0.00168521       0.00392953
H        0.01330405       4.33252102       0.37666620      -0.00119916      -0.00230880       0.00084714
H       -0.13912402       2.64547134       0.88130829       0.00080225      -0.00146971      -0.00205521
H       -0.17647804       5.05887711       2.65329995       0.00279208       0.00051139      -0.00076503
H        0.15132780       3.38948957       3.05166281       0.00106725       0.00361412      -0.00085664
H       -2.46708154       4.83587456       3.11409475       0.00371630       0.00035994       0.00157389
H       -2.06296309       3.32749968       3.92099361      -0.00263670      -0.00112257      -0.00253655
H       -3.72920740       3.24661119       1.79677260       0.00285406       0.00319189      -0.00150127
H       -2.44625453       2.03516369       1.91148153       0.00315400      -0.00006119      -0.00301777
C       -2.57128722       7.33645281      -0.65432999      -0.00081317      -0.00239519       0.00049684
O       -1.57115480       6.34840799      -0.71608539      -0.00243956      -0.00804226      -0.00438381
C       -2.86880053       7.81328246       0.75692367      -0.00040465      -0.00145141      -0.00117568
C       -2.10483650       7.36328264       1.82598824       0.00147608       0.00334912      -0.00007675
C       -2.37918800       7.78232331       3.12008545       0.00046129       0.00100058       0.00003499
C       -3.41929214       8.66530033       3.32021889       0.00004283      -0.00068835      -0.00032413
N       -3.73401027       9.09835834       4.69918285       0.00130001       0.00034002       0.00202323
O       -4.63553399       9.89565056       4.83702167       0.00223799      -0.00428332       0.00098015
O       -3.07222127       8.61894484       5.59437779      -0.00078263       0.00083231      -0.00066310
C       -4.17408892       9.16543351       2.27462834      -0.00058624      -0.00212690       0.00070968
C       -3.89000265       8.73391553       0.99139094       0.00340625       0.00136750      -0.00154460
H       -2.18736338       8.18350584      -1.22573011      -0.00323632      -0.00225673       0.00542108
H       -1.27503756       6.69366809       1.64971064      -0.00018036       0.00675667       0.00279573
H       -1.79822943       7.43931446       3.96434302      -0.00246902       0.00239525       0.00062433
H       -4.96209473       9.87620262       2.47533194       0.00213176       0.00354723      -0.00064188
H       -4.46803673       9.13822644       0.16918423      -0.00090879      -0.00214169       0.00413950
