53
Properties=species:S:1:pos:R:3:forces:R:3 Atoms:=T 53,=T ConfID:=T 0=T 1=T spin=1 charge=1 energy=-30761.498247717453 free_energy=-30761.498247717453 stress="0.006398202385753393 -0.03651265799999237 0.0021190568804740906 -0.03651265799999237 -0.03480838984251022 -0.00982219073921442 0.0021190568804740906 -0.00982219073921442 0.02719055488705635" pbc="F F F"
C       -4.73835517       5.13339174       0.59866544       0.00765078      -0.00617814      -0.00180485
C       -4.22922210       5.45415039      -0.77729326       0.00271889      -0.00294408      -0.00037901
C       -4.45394478       6.66442250      -1.30911962      -0.00219662      -0.00079321       0.00497000
N       -3.49413767       4.47629061      -1.45215250      -0.00483547      -0.00069124      -0.00165227
C       -3.44887493       4.56534017      -2.92517702      -0.00226469      -0.00069912       0.00203659
C       -3.39355436       3.12117064      -3.43252698       0.00666412      -0.00573795      -0.00049548
C       -3.96734263       2.31145003      -2.26876702      -0.00308389       0.00087176      -0.00123392
C       -3.44170042       3.07092375      -1.04851190      -0.00179415       0.00197890      -0.00276340
C       -1.99453447       2.64914126      -0.78791993       0.00040826       0.00212620      -0.00081485
N       -1.37825833       3.36805455       0.35886854       0.00289931      -0.00077554       0.00174928
H       -1.62413642       4.36976760       0.28409991      -0.00577509      -0.00398733       0.00636652
C        0.13795018       3.31059379       0.37128336       0.00300067      -0.00008437      -0.00422474
C        0.54364148       3.10680184       1.83510525       0.00120973       0.00392244      -0.00142982
C       -0.72948736       3.40183851       2.63308068       0.00104963      -0.00250162       0.00022184
C       -1.82109372       2.89243171       1.71222259       0.00134074      -0.00000158       0.00303869
H       -5.27482318       5.99253564       0.99355160      -0.00154393      -0.00302449      -0.00372515
H       -5.42266483       4.28343521       0.59984811      -0.00309945      -0.00351195      -0.00267618
H       -3.91813712       4.91687856       1.28783047      -0.00049382      -0.00182433      -0.00274138
H       -4.09635864       6.95545721      -2.28587862       0.00077799       0.00270938       0.00527783
H       -5.04393099       7.38396859      -0.76227344      -0.00420850       0.00400836       0.00672262
H       -2.60276619       5.16389944      -3.26692884      -0.00127400      -0.00030952       0.00108273
H       -4.36150724       5.05863221      -3.26766705       0.00129040       0.00130244      -0.00364574
H       -2.37126033       2.81384911      -3.65663612       0.00531616       0.00174495       0.00118246
H       -3.96811323       2.99934675      -4.34787641       0.00174144       0.00234726      -0.00009474
H       -5.05680534       2.35865003      -2.27110533      -0.00177346      -0.00203203       0.00307700
H       -3.67515570       1.26139792      -2.28281427      -0.00142570       0.00000940       0.00177827
H       -4.04512961       2.88903138      -0.16095652      -0.00157980       0.00067760      -0.00332863
H       -1.91969150       1.58035317      -0.58231105       0.00141539       0.00039449       0.00600182
H       -1.38817430       2.87645725      -1.66392844       0.00152610       0.00492938      -0.00285359
H        0.49446462       4.24776967      -0.04921945      -0.00027971       0.00619670      -0.00274392
H        0.44850392       2.49233912      -0.27350046       0.00078763      -0.00757689      -0.00079453
H        1.37213873       3.75327567       2.11300179      -0.00377224       0.00582976       0.00021594
H        0.85900297       2.07587977       1.99462446      -0.00174808       0.00478549       0.00332958
H       -0.85076404       4.47363123       2.79097219       0.00000756      -0.00456541       0.00262818
H       -0.75032300       2.90286994       3.59910876       0.00289616      -0.00170812       0.00066146
H       -2.81797122       3.26649276       1.92534203      -0.00551647      -0.00066596      -0.00488562
H       -1.84342228       1.80209412       1.67927617      -0.00230530       0.00104385      -0.00307706
C       -2.00634569       7.18497822       0.57156085       0.00244857       0.00123257      -0.00110801
O       -1.59355627       6.08393105       0.89073791      -0.00489197       0.00151187       0.00110816
C       -2.82295277       8.03550751       1.45312369      -0.00103091      -0.00154478      -0.00159331
C       -3.15199558       7.60845159       2.73824334       0.00151026       0.00097472       0.00105987
C       -3.95025606       8.39768235       3.54336916      -0.00186289      -0.00287385      -0.00000106
C       -4.40192769       9.60376061       3.03465052       0.00231244       0.00160078       0.00117411
N       -5.27414548      10.44579371       3.89092849       0.00267994       0.00104271       0.00036035
O       -5.66718616      11.48987090       3.42101614       0.00355856       0.00229314      -0.00172572
O       -5.53250315      10.02484897       4.99705278      -0.00058640       0.00194381      -0.00155523
C       -4.08286548      10.05953972       1.76988664       0.00180529       0.00138859       0.00118165
C       -3.27998824       9.25936202       0.97450051       0.00040796      -0.00001096      -0.00001586
H       -1.76518138       7.60584083      -0.41545845       0.00017059      -0.00496956      -0.00405399
H       -2.77581996       6.65954973       3.09628946      -0.00063470      -0.00158438      -0.00140632
H       -4.22911967       8.10314298       4.54395643       0.00154447       0.00115803       0.00149965
H       -4.46131971      11.01207984       1.43105450      -0.00120530       0.00392592       0.00094218
H       -3.01738142       9.57959044      -0.02637961       0.00004365      -0.00135474      -0.00084252
