53
Properties=species:S:1:pos:R:3:forces:R:3 Atoms:=T 53,=T ConfID:=T 1=T 0=T spin=1 charge=1 energy=-30761.910840128494 free_energy=-30761.910840128494 stress="-0.07162770628929138 -0.0067049236968159676 -0.057442665100097656 -0.0067049236968159676 0.04018015041947365 -0.040148910135030746 -0.057442665100097656 -0.040148910135030746 0.005016708746552467" pbc="F F F"
C        1.40833523       2.77448839       0.82077069       0.00003250       0.00041654       0.00190305
C        1.07338290       1.98789918      -0.39925555       0.00556922      -0.00092688       0.00001356
C        1.63665233       2.47671580      -1.68478014       0.00350122      -0.00154991      -0.00202701
N        0.43653348       0.87052719      -0.36035857      -0.00313918       0.00453883      -0.00307022
C       -0.02376738       0.12439945      -1.56864260      -0.00407861      -0.00265356       0.00035496
C       -0.93749059      -0.98244272      -1.02881742      -0.00524156       0.00039281       0.00047457
C       -1.17003844      -0.62470607       0.44530602       0.00386617       0.00556857      -0.00074357
C        0.12315667       0.07177226       0.84869513       0.00295064       0.00541736      -0.00373651
C        1.25790063      -0.93919025       1.06244201      -0.00017938      -0.00205170       0.00122181
N        2.56665413      -0.33694882       1.23085087       0.00150079       0.00390006      -0.00202250
H        3.08479847       0.45589731      -0.50665070      -0.00018588      -0.00510586      -0.00103952
C        2.81738516       0.18932051       2.58116968       0.00277624       0.00247606       0.00056536
C        4.32034227       0.45845350       2.58173355       0.00384743       0.00092143       0.00469504
C        4.88919626      -0.58195926       1.58771922       0.00146626       0.00251440       0.00244498
C        3.65654417      -1.32173337       1.06723860       0.00278950       0.00464552      -0.00145001
H        2.44279340       2.56759666       1.10621819       0.00245464       0.00207403      -0.00066707
H        1.34101867       3.83518478       0.58392391      -0.00270926       0.00095044      -0.00481834
H        0.76774472       2.56017963       1.66943346       0.00056328      -0.00257100       0.00450927
H        1.12910963       2.06803172      -2.55392021       0.00211730       0.00372528      -0.00559686
H        1.60759423       3.56443598      -1.73565931       0.00024426      -0.00178977       0.00323917
H        0.84732004      -0.24879314      -2.10424623      -0.00581251      -0.00380611       0.00294396
H       -0.56113821       0.82271529      -2.20686983       0.00226983      -0.00565416      -0.00231715
H       -0.45698271      -1.95411254      -1.12397676      -0.00474342       0.00063702      -0.00180807
H       -1.86766708      -1.02719495      -1.58911198      -0.00708895      -0.00185209       0.00154454
H       -2.00943844       0.06281421       0.55254289      -0.00238296      -0.00439286       0.00121781
H       -1.36923124      -1.49714020       1.06499003       0.00236091       0.00663102      -0.00373741
H        0.01061225       0.72344419       1.71029711      -0.00033646      -0.00023124      -0.00043103
H        0.98298938      -1.56081105       1.92685396      -0.00216269      -0.00741866       0.00290856
H        1.30316288      -1.60245236       0.19587424      -0.00222355      -0.00125858      -0.00223850
H        2.21584292       1.07195914       2.79498760      -0.00238745      -0.00161778       0.00382673
H        2.55993745      -0.57707625       3.32698266       0.00218782       0.00253879      -0.00090401
H        4.74102904       0.36313347       3.58003567       0.00282480       0.00037280       0.00657819
H        4.52952054       1.47323264       2.24005429      -0.00046357      -0.00061769      -0.00098699
H        5.41421063      -0.09131117       0.76901371       0.00076775      -0.00168465       0.00093123
H        5.58973719      -1.26725843       2.05919936       0.00033787       0.00030905      -0.00162154
H        3.44824465      -2.21151709       1.67706509       0.00122729       0.00142960      -0.00910026
H        3.73974496      -1.63371064       0.02556329      -0.00239737       0.00054189       0.00012801
C        3.13052747       1.99796205      -1.72605390      -0.00091084       0.00161440      -0.00275154
O        3.20825610       0.61799855      -1.46497900       0.00071367       0.00144317       0.00873607
C        3.69167220       2.30023775      -3.09279092      -0.00222262       0.00274593      -0.00268348
C        4.20252411       3.56453909      -3.36376101       0.00112723       0.00008454      -0.00018220
C        4.67445796       3.87502021      -4.62835990      -0.00127214       0.00159485       0.00186733
C        4.62181104       2.89875793      -5.60452532      -0.00086414      -0.00163726       0.00552373
N        5.12337333       3.21895836      -6.95931743      -0.00222222       0.00221974       0.00395194
O        5.57112426       4.33100138      -7.13661663      -0.00251912      -0.00115585      -0.00119529
O        5.04967613       2.34747240      -7.79831936       0.00113527       0.00396492       0.00063202
C        4.12627380       1.63207617      -5.36209571       0.00112076      -0.00315266       0.00103796
C        3.65853874       1.33495663      -4.09246785       0.00237685       0.00034911       0.00052954
H        3.69467687       2.56720992      -0.97823722       0.00175647      -0.00715428      -0.00153173
H        4.24925113       4.31358646      -2.58140399      -0.00477252      -0.00484695       0.00011834
H        5.08353979       4.84638979      -4.86280682      -0.00047899      -0.00020572      -0.00074369
H        4.11655964       0.90171516      -6.15735243       0.00620409      -0.00257268      -0.00129324
H        3.28741293       0.34381421      -3.87156673       0.00070534       0.00189019      -0.00319995
