53
Properties=species:S:1:pos:R:3:forces:R:3 Atoms:=T 53,=T ConfID:=T 0=T 1=T spin=1 charge=1 energy=-30761.545375441146 free_energy=-30761.545375441146 stress="0.024907484650611877 -0.019564548507332802 -0.011356854811310768 -0.019564548507332802 0.009751640260219574 -0.019698701798915863 -0.011356854811310768 -0.019698701798915863 0.07412750273942947" pbc="F F F"
C        1.34120251       2.75432400       1.28720133       0.00306295       0.00023449      -0.00467561
C        1.11400927       2.64100970      -0.19376485       0.00382449       0.00361524      -0.00457378
C        1.08371524       3.75303198      -0.94196978       0.00407496       0.00010265      -0.00787349
N        1.01344894       1.36329054      -0.75744035       0.00160703      -0.00016285       0.00017177
C        0.46166111       1.29638553      -2.12300130       0.00143200      -0.00351395       0.00185964
C       -0.06071033      -0.12390673      -2.27328126      -0.00111366      -0.00418611       0.00196800
C       -0.50742199      -0.45628736      -0.85069578       0.00049644      -0.00105458       0.00222183
C        0.59933204       0.17443179       0.00304839      -0.00041045      -0.00378321       0.00232420
C        1.73412231      -0.84530446       0.13101792       0.00268733      -0.00061575      -0.00566855
N        2.91847925      -0.33474516       0.86592747       0.00290674      -0.00232051      -0.00441355
H        3.15446319       0.60113936       0.49087218       0.00514591      -0.00023185       0.00080040
C        2.77494697      -0.26267884       2.35463490      -0.00329389       0.00438077      -0.00087722
C        4.19248391       0.03335976       2.82183120      -0.00281599       0.00426923      -0.00011031
C        5.09943749      -0.68867942       1.79789612      -0.00307131      -0.00133819      -0.00393924
C        4.15492618      -1.16655615       0.69203123       0.00261354      -0.00433188      -0.00196265
H        2.30858769       2.33572191       1.57456677       0.00424839       0.00202480       0.00375454
H        1.35477868       3.80455539       1.56680807      -0.00034273      -0.00884070      -0.00099089
H        0.56009392       2.27083674       1.87535450      -0.00494074      -0.00055008      -0.00013382
H        0.93588401       3.74454837      -2.01115206       0.00311399       0.00320178       0.00833100
H        1.18212858       4.71654367      -0.46437505       0.00261893      -0.00681105      -0.00293225
H        1.21548028       1.56007821      -2.86547823      -0.00026347      -0.00539458      -0.00169259
H       -0.35993076       2.01536978      -2.21162028       0.00135483      -0.00094759      -0.00055999
H        0.72580112      -0.80283585      -2.61032753       0.00076797       0.00647865      -0.00079479
H       -0.87108655      -0.18397453      -2.99606742      -0.00308814       0.00076148      -0.00108064
H       -1.45681055       0.03307306      -0.63100776       0.00538121       0.00432101       0.00371852
H       -0.62944517      -1.52342782      -0.66488549      -0.00259627       0.00118719       0.00217821
H        0.23394123       0.44254914       0.99328271      -0.00217013       0.00323688       0.00269085
H        1.39325787      -1.74158075       0.65159236      -0.00017205      -0.00331525      -0.00457905
H        2.07906556      -1.12937383      -0.86338885       0.00567011      -0.00384053      -0.00511731
H        2.03439704       0.48051529       2.63030184      -0.00689004       0.00507632      -0.00118450
H        2.43437774      -1.24812390       2.67585168      -0.00978986       0.00152865       0.00127305
H        4.34831817      -0.31002644       3.84138940      -0.00313071       0.00455280      -0.00040886
H        4.37497828       1.10727467       2.79937871       0.00199214       0.00077702      -0.00035137
H        5.84479618      -0.00639676       1.39741959       0.00655331       0.00172318      -0.00013562
H        5.62306022      -1.53449572       2.23684057      -0.00227353      -0.00140100       0.00173709
H        3.85150896      -2.20541353       0.82134810       0.00742563      -0.00222608      -0.00452934
H        4.53548820      -1.02818093      -0.31615606      -0.00001969      -0.00342720       0.00240712
C        4.14672396       2.72819408      -1.03246865       0.00100529       0.00026382       0.00299666
O        4.24896367       1.94114871      -0.11053473      -0.00063928       0.00573281       0.00105131
C        3.90304321       2.33024756      -2.43232362      -0.00059894       0.00272243       0.00156965
C        3.63786995       3.31506984      -3.37706995       0.00143155       0.00118460      -0.00096264
C        3.37095131       2.96450517      -4.69147079      -0.00021799       0.00456591      -0.00019840
C        3.38890647       1.62374859      -5.02292738      -0.00713044       0.00191608       0.00271836
N        3.08862584       1.23436169      -6.42288213       0.00238848      -0.00111734      -0.00215757
O        2.88870725       2.12735674      -7.21428546      -0.00255076       0.00295228       0.00133758
O        3.05910052       0.04805114      -6.66905238      -0.00202519      -0.00306471      -0.00233500
C        3.67444421       0.62167272      -4.11000352      -0.00093914       0.00225657       0.00755370
C        3.93233975       0.98782356      -2.80359563      -0.00017153       0.00168982       0.00460550
H        4.25426997       3.80790347      -0.85075598      -0.00354872      -0.00030857       0.00247494
H        3.62651057       4.35670526      -3.08030495      -0.00219547      -0.00478738      -0.00244480
H        3.15405599       3.70168555      -5.45014875      -0.00116418       0.00016574       0.00058062
H        3.69374591      -0.40748896      -4.43694635      -0.00206381       0.00133867      -0.00133564
H        4.17438059       0.23850264      -2.06318756      -0.00217508      -0.00468995       0.00769546
