53
Properties=species:S:1:pos:R:3:forces:R:3 Atoms:=T 53,=T ConfID:=T 1=T 0=T spin=1 charge=1 energy=-30761.80425796373 free_energy=-30761.80425796373 stress="-0.012557096779346466 0.03082272782921791 -0.009652101434767246 0.03082272782921791 -0.009713922627270222 -0.017778340727090836 -0.009652101434767246 -0.017778340727090836 -0.010686773806810379" pbc="F F F"
C       -0.75154559       4.89126053       0.61525812      -0.00461661      -0.00093113       0.00072500
C       -0.57575163       3.50986495       1.14742566      -0.00299278       0.00306687      -0.00362828
C       -1.28327670       3.16654889       2.41133818       0.00524354      -0.00079862      -0.00334465
N        0.18148195       2.66761963       0.53304205       0.00081577       0.00419354       0.00057201
C        0.98322104       3.03701550      -0.66072351      -0.00166745      -0.00138691       0.00139249
C        2.17343445       2.09714517      -0.58798035       0.00303442       0.00101268       0.00068891
C        1.55182754       0.80997570      -0.06461208      -0.00540851      -0.00036886      -0.00202616
C        0.50944204       1.26224664       0.96455070      -0.00304282       0.00386991       0.00166163
C       -0.67744870       0.29228103       1.10607266       0.00140775      -0.00161554       0.00212618
N       -1.80492120       0.51314170       0.21884365       0.00444713      -0.00830032       0.00060860
H       -2.64751707       2.06207851       0.49002726      -0.00135192       0.00335062      -0.00026853
C       -1.56812078       0.26040000      -1.20976075       0.00288942      -0.00172766       0.00025550
C       -2.97523206       0.20337752      -1.81010934       0.00213939       0.00176219       0.00102831
C       -3.88655887      -0.20552366      -0.63003071       0.00284493      -0.00087450       0.00079869
C       -2.92561655      -0.39214291       0.54107277       0.00126468      -0.00026871       0.00249292
H        0.16575648       5.46482126       0.78144100      -0.00351839      -0.00859578       0.00363666
H       -1.56496124       5.39089661       1.13311210      -0.00347795      -0.00191632      -0.00018677
H       -0.96383589       4.88155018      -0.45261102       0.00263414      -0.00114287       0.00240568
H       -1.05304589       3.94954133       3.13713666      -0.00337834      -0.00076435       0.00044594
H       -0.94021615       2.22199155       2.82047190       0.00206103      -0.00121353       0.00092552
H        0.37610593       2.86545649      -1.55167204       0.00029632       0.00247154      -0.00078636
H        1.25232353       4.08766449      -0.61789310      -0.00279924      -0.00322388       0.00026474
H        2.65502802       1.97749212      -1.55528260       0.00390962      -0.00008629      -0.00238614
H        2.91251342       2.48813511       0.11286476       0.00635272       0.00096795       0.00377650
H        1.06659881       0.26710024      -0.87500775      -0.00041982      -0.00662984      -0.00495540
H        2.27467587       0.13854563       0.39417434      -0.00227854       0.00335519      -0.00104693
H        0.98992413       1.35028788       1.94118250       0.00370458       0.00336121      -0.00063155
H       -1.06378111       0.31637156       2.12560702       0.00415063       0.00422848       0.00255025
H       -0.25633360      -0.71592728       0.96748078      -0.00010409      -0.00108562      -0.00340179
H       -1.04805357      -0.70033479      -1.33875435       0.00091219      -0.00150961       0.00211926
H       -0.95225009       1.04183180      -1.65501488      -0.00396866       0.00216433      -0.00129190
H       -3.01744907      -0.50247355      -2.63666195      -0.00280354       0.00285418       0.00034484
H       -3.26463258       1.17872824      -2.19847080      -0.00143097       0.00037993      -0.00113735
H       -4.60305868       0.58419417      -0.40938740      -0.00138547      -0.00499251       0.00129240
H       -4.44842452      -1.11495646      -0.82925588       0.00207524       0.00004982      -0.00389116
H       -3.35701204      -0.13382775       1.50924700      -0.00488797       0.00485916      -0.00041465
H       -2.56464811      -1.42848039       0.59568971       0.00139078       0.00156347      -0.00026722
C       -2.82372953       3.13101833       2.11858206       0.00061847      -0.00300024      -0.00134824
O       -3.04632367       2.93189846       0.74383238      -0.00728022      -0.00015085      -0.00153324
C       -3.53288396       4.38982156       2.57039211       0.00248486       0.00053067       0.00054099
C       -3.44199967       4.78413655       3.90382333       0.00538162       0.00109688       0.00117399
C       -4.09322012       5.91861079       4.35126888      -0.00242264      -0.00213587      -0.00018086
C       -4.83612426       6.64848103       3.44091689      -0.00222103       0.00308422       0.00222000
N       -5.53466354       7.86542010       3.90846208      -0.00088507       0.00011883       0.00110275
O       -5.41618094       8.15771973       5.07888229       0.00416033       0.00197894      -0.00127642
O       -6.17594541       8.48707883       3.08953034       0.00116408       0.00379817      -0.00627055
C       -4.95477050       6.27867588       2.11715675      -0.00309999       0.00164464       0.00427849
C       -4.29844824       5.13529834       1.68288567       0.00388662       0.00568376       0.00042710
H       -3.23289373       2.29655264       2.70072111      -0.00610587      -0.00489949      -0.00373334
H       -2.86923822       4.19448550       4.61086151       0.00137906      -0.00064362       0.00641621
H       -4.04062625       6.23960803       5.38095657      -0.00198773      -0.00210739      -0.00266395
H       -5.55516450       6.87672208       1.44766659      -0.00188293      -0.00074117      -0.00017392
H       -4.38688163       4.81613923       0.65467435       0.00476937      -0.00033592       0.00057340
