53
Properties=species:S:1:pos:R:3:forces:R:3 Atoms:=T 53,=T ConfID:=T 0=T 1=T spin=1 charge=1 energy=-30761.52538070543 free_energy=-30761.52538070543 stress="-0.04372357577085495 0.0315433144569397 0.0005193118122406304 0.0315433144569397 -0.04965464398264885 0.004214669577777386 0.0005193118122406304 0.004214669577777386 0.017568591982126236" pbc="F F F"
C       -0.35186325       4.33209805       1.96446820       0.00193687       0.00407934      -0.00286198
C       -0.03130724       2.86338813       1.94769103       0.00174266       0.00278939      -0.00021389
C       -0.10513773       2.13320697       3.07050296      -0.00001977      -0.00151607      -0.00062389
N        0.29188543       2.33215686       0.70115144      -0.00001119       0.00182925       0.00061248
C        0.89776228       3.16270201      -0.35881129      -0.00265302       0.00030655      -0.00084555
C        2.04448225       2.31104898      -0.89088258       0.00080020       0.00406379       0.00288301
C        1.51024283       0.89314375      -0.73123635      -0.00128287      -0.00029317       0.00010653
C        0.76729286       0.95452694       0.60674199      -0.00273591       0.00073520      -0.00006273
C       -0.36067097      -0.08153300       0.74949134      -0.00109603      -0.00118171       0.00156252
N       -1.68671563       0.42360199       0.30693658      -0.00218015       0.00028735       0.00335311
H       -1.87861902       1.32309182       0.78012536      -0.00035068       0.00340773       0.00065539
C       -1.85631047       0.65695808      -1.16137309       0.00158084      -0.00065910       0.00147262
C       -3.36395734       0.78719468      -1.33982814       0.00234288      -0.00213171       0.00132662
C       -3.98174146      -0.08117641      -0.22116725      -0.00050609      -0.00434592       0.00628589
C       -2.80888660      -0.50507284       0.66553670      -0.00213895      -0.00307090       0.00243814
H        0.55217389       4.93454618       1.86943687       0.00615204       0.00282034       0.00396546
H       -0.81899624       4.60192634       2.90953666      -0.00574982      -0.00240285      -0.00357110
H       -1.01937074       4.60603445       1.14526816      -0.00061417      -0.00206623      -0.00427346
H       -0.38667686       2.61364561       3.99568470       0.00251222       0.00138995       0.00071838
H        0.17707547       1.09350107       3.13263792       0.00101640      -0.00475641      -0.00032182
H        0.16646537       3.37667430      -1.14522870       0.00045540       0.00076294      -0.00178085
H        1.24243776       4.11499504       0.03350045       0.00215381      -0.00484958      -0.00323658
H        2.31193480       2.55860747      -1.91606878      -0.00038687       0.00191502       0.00046657
H        2.92844658       2.45029919      -0.26647645       0.00563447      -0.00147464       0.00180059
H        0.82768864       0.65100713      -1.54851883      -0.00416884      -0.00034159      -0.00024563
H        2.28878402       0.13221864      -0.71912192      -0.00004751      -0.00263170      -0.00027872
H        1.47869342       0.75164521       1.41781610      -0.00121475      -0.00294310      -0.00376574
H       -0.49150536      -0.38916040       1.78447610       0.00039750      -0.00242006       0.00377902
H       -0.13704577      -0.97180589       0.15975395       0.00238588      -0.00313640       0.00012641
H       -1.45342384      -0.22029338      -1.66943618      -0.00028265      -0.00027525      -0.00023028
H       -1.29208244       1.53816740      -1.45210692      -0.00137901       0.00051525      -0.00137995
H       -3.66292570       0.46467488      -2.33421703       0.00057963      -0.00087813      -0.00024765
H       -3.66249984       1.82599181      -1.21875315       0.00076037      -0.00223447       0.00297949
H       -4.70937695       0.49053356       0.34886946      -0.00121814       0.00306421      -0.00531773
H       -4.48703125      -0.95962576      -0.61563354       0.00186639       0.00059728      -0.00566579
H       -2.99471334      -0.42471537       1.73425157       0.00370165      -0.00150704      -0.00668337
H       -2.46605805      -1.51480044       0.44032838      -0.00088924       0.00567415      -0.00029318
C       -3.36917302       3.21903577       2.27247891      -0.00314144       0.00116716       0.00230190
O       -3.16908056       2.64386113       1.21999321       0.00411918       0.00383404       0.00339677
C       -3.99937717       4.54229421       2.38107155      -0.00087349       0.00231475      -0.00141772
C       -4.16643219       5.10317091       3.64346434       0.00397179       0.00137862      -0.00103877
C       -4.73182192       6.36118468       3.77365382      -0.00292172      -0.00301750       0.00194393
C       -5.11377311       7.02040964       2.62200848      -0.00043552      -0.00054936       0.00294977
N       -5.70966885       8.37432543       2.75029229      -0.00301004       0.00064653      -0.00075414
O       -5.82469583       8.82268103       3.86893732      -0.00426369      -0.00126987      -0.00390748
O       -6.03449793       8.93226437       1.72574840      -0.00175871      -0.00034741       0.00118688
C       -4.96500992       6.48495021       1.35264319       0.00670127       0.00531082       0.00141581
C       -4.39925049       5.23093715       1.23607573      -0.00922104      -0.00076795       0.00005564
H       -3.05694771       2.75622040       3.22355206       0.00060902       0.00067893       0.00119165
H       -3.85201192       4.55742080       4.52504537      -0.00231465      -0.00203907      -0.00147169
H       -4.87852780       6.83073953       4.73455331       0.00523755       0.00046556       0.00113240
H       -5.28740299       7.05293249       0.49293084      -0.00005669       0.00046734       0.00136150
H       -4.26123713       4.77373428       0.26563608       0.00026469       0.00260549      -0.00097870
