53
Properties=species:S:1:pos:R:3:forces:R:3 Atoms:=T 53,=T ConfID:=T 1=T 0=T spin=1 charge=1 energy=-30761.924238775802 free_energy=-30761.924238775802 stress="0.0440794974565506 -0.02873857691884041 0.02958674542605877 -0.02873857691884041 0.01605619303882122 -0.04059750959277153 0.02958674542605877 -0.04059750959277153 0.0397883802652359" pbc="F F F"
C        0.88899221      -1.73382793       5.72755491      -0.00716429       0.00081420      -0.00213371
C        1.70784290      -0.70272594       6.42325818       0.00100023       0.00151696       0.00088545
C        1.69275205      -0.70066733       7.91196009       0.00638527       0.00074023      -0.00064512
N        2.33198811       0.23094051       5.79444608       0.00222849      -0.00226937       0.00217200
C        3.26430827       1.20473613       6.43663559      -0.00018767       0.00356243       0.00267484
C        3.93490583       1.94365974       5.27237687       0.00092247       0.00334158       0.00187397
C        3.56084597       1.13693533       4.02334067      -0.00330644       0.00130071       0.00344422
C        2.18453428       0.58005943       4.36139584      -0.00420482      -0.00183459       0.00259627
C        1.09658436       1.65421991       4.24882454      -0.00247445       0.00034254      -0.00075680
N       -0.22268150       1.20692239       4.65756971       0.00043928       0.00066170      -0.00052750
H       -0.04929208       1.04237213       6.73583429      -0.00143477      -0.00526349      -0.00004889
C       -1.15015772       2.35175185       4.80983235       0.00151802       0.00088752      -0.00043422
C       -2.55656666       1.74330610       4.70811341      -0.00066835       0.00272741       0.00274381
C       -2.33575352       0.33568806       4.11690888       0.00285426       0.00150294      -0.00011824
C       -0.88848276       0.36796776       3.64821370       0.00259015      -0.00110521       0.00110774
H        1.21449698      -1.92018046       4.70867708      -0.00219350      -0.00847868       0.00043720
H        0.92596658      -2.66164714       6.29570596       0.00409148       0.00126884      -0.00507155
H       -0.15565482      -1.41038528       5.71046667       0.00874008      -0.00003081      -0.00015842
H        1.72060856      -1.71928785       8.29195329      -0.00584645       0.00247897      -0.00489576
H        2.53346549      -0.15365212       8.32610826      -0.00047581       0.00190520      -0.00094566
H        2.69341188       1.85630825       7.09563718       0.00490612      -0.00476235       0.00078085
H        3.98234027       0.63890695       7.02672422      -0.00435652       0.00764627      -0.00199417
H        3.56378533       2.96431613       5.20480296       0.00028975      -0.00080022      -0.00419071
H        5.01107686       2.00036247       5.41375551       0.00335063       0.00158582       0.00224312
H        4.26200959       0.31708351       3.86429298      -0.00258948       0.00002331      -0.00061605
H        3.54160921       1.74170273       3.11883715       0.00021525      -0.00120172       0.00218773
H        1.92563739      -0.30227065       3.78365661      -0.00282067      -0.00347678      -0.00347327
H        1.37648567       2.50460295       4.87556635      -0.00311935      -0.00164533      -0.00400880
H        1.09300756       2.01159808       3.20792344       0.00395940       0.00056857       0.00082406
H       -0.96123269       2.87041650       5.75105715       0.00008792      -0.00005337      -0.00165227
H       -0.98763360       3.06938034       3.99509117       0.00113986      -0.00163526      -0.00158134
H       -3.04939487       1.69796054       5.67789488      -0.00170284      -0.00071978       0.00421121
H       -3.18660594       2.35416965       4.06492612       0.00014899      -0.00094173      -0.00073248
H       -3.02248893       0.10374480       3.30579778       0.00277044       0.00109355      -0.00148282
H       -2.46151618      -0.43039300       4.88350740       0.00280784       0.00123137      -0.00297718
H       -0.43416842      -0.61977048       3.57509434      -0.00073339      -0.00368734       0.00146735
H       -0.81157487       0.84503067       2.65926385      -0.00105698       0.00165795       0.00387979
C        0.37513204       0.01984479       8.36699715       0.00413156      -0.00101407      -0.00203902
O        0.21868398       1.22639775       7.65883335       0.00012712       0.00351495       0.00083152
C       -0.84578751      -0.88217889       8.30822144      -0.00033099      -0.00023558       0.00120888
C       -0.81724522      -2.15060787       8.88756150      -0.00054523       0.00308996      -0.00017875
C       -1.92285303      -2.98027748       8.83225364      -0.00170494       0.00320514       0.00677957
C       -3.05958489      -2.52135411       8.19204313      -0.00164923       0.00246310      -0.00533183
N       -4.23815369      -3.41085814       8.10366367      -0.00369227      -0.00180829      -0.00336438
O       -5.20586235      -2.98936515       7.50773976       0.00276420      -0.00242044       0.00444602
O       -4.15045933      -4.50027127       8.62627385      -0.00031388       0.00500304      -0.00440419
C       -3.13417279      -1.25999898       7.63942876       0.00128871      -0.00035607       0.00387873
C       -2.01762205      -0.43891305       7.70809766      -0.00097125      -0.00054385       0.00405086
H        0.53759583       0.30595059       9.40786012      -0.00456773      -0.00306211      -0.00353371
H        0.06785646      -2.50165510       9.40414511      -0.00266318      -0.00070444      -0.00205089
H       -1.91843334      -3.96516328       9.27549202      -0.00076250      -0.00039961      -0.00166275
H       -4.05274461      -0.93358517       7.17267549       0.00294161      -0.00312965       0.00418374
H       -2.06977771       0.56268033       7.30547836      -0.00016213      -0.00255372       0.00210184
