53
Properties=species:S:1:pos:R:3:forces:R:3 Atoms:=T 53,=T ConfID:=T 0=T 1=T spin=1 charge=1 energy=-30761.520921801162 free_energy=-30761.520921801162 stress="-0.08391288667917252 -0.036540526896715164 0.03899676352739334 -0.036540526896715164 -0.011453342624008656 0.018961530178785324 0.03899676352739334 0.018961530178785324 -0.012745865620672703" pbc="F F F"
C        0.50539594      -1.58330311       5.11780624      -0.00297113      -0.00385047      -0.00376642
C        1.47702414      -0.97295494       6.08708926      -0.00017771       0.00060340      -0.00330890
C        1.69907152      -1.56826995       7.26770456       0.00286524       0.00264978      -0.00324800
N        2.07623734       0.24196478       5.74075442      -0.00186195       0.00469536       0.00173111
C        3.29448246       0.62150993       6.47935040       0.00303304       0.00208247      -0.00197524
C        4.10511512       1.49215663       5.52077743      -0.00030912       0.00190685      -0.00715376
C        3.64246600       1.01231661       4.14487504       0.00098854       0.00022895      -0.00293517
C        2.15120407       0.75102234       4.36832632       0.00537816      -0.00413675       0.00209451
C        1.39338634       2.07434119       4.23574866       0.00563034      -0.00261255       0.00480762
N       -0.05706333       1.93817197       4.51958328      -0.00333401      -0.00449419      -0.00184323
H       -0.17678181       1.34955346       5.36345359       0.00261144       0.00009943       0.00266488
C       -0.74902590       3.23417611       4.82770539      -0.00256463       0.00162650      -0.00125425
C       -2.24102554       2.93805588       4.64249113      -0.00765945       0.00448813       0.00340369
C       -2.30382771       1.61090385       3.85253525      -0.00324660       0.00196502      -0.00089787
C       -0.87185608       1.36183366       3.40471127      -0.00536462       0.00024674      -0.00535471
H        0.95939863      -1.81024956       4.15173284       0.00035746      -0.00091475       0.00684073
H        0.12645337      -2.51563359       5.52875988      -0.00241724       0.00054462      -0.00036035
H       -0.35428314      -0.92841408       4.95237438       0.00203724      -0.00569693       0.00032153
H        1.20684951      -2.50272367       7.49087877       0.00228300       0.00098189       0.00050103
H        2.36752479      -1.17110417       8.01690097       0.00570832       0.00356492      -0.00214980
H        3.05305321       1.13044520       7.41410397      -0.00191333       0.00068433      -0.00128879
H        3.84931762      -0.28672199       6.73074233      -0.00113282      -0.00354990      -0.00103379
H        3.88736723       2.55199434       5.66077341      -0.00479563      -0.00091654       0.00234668
H        5.17463766       1.36380750       5.67110653      -0.00442205       0.00037860       0.00073982
H        4.13225145       0.07357853       3.88385650       0.00488199       0.00317958       0.00404749
H        3.83564874       1.72694764       3.34482105       0.00757091      -0.00221458      -0.00285205
H        1.75687058       0.02908103       3.65531752      -0.00275561       0.00424682      -0.00105886
H        1.78878544       2.79510750       4.95081226       0.00482243       0.00403149       0.00685573
H        1.49363811       2.48919023       3.23157550      -0.00307748       0.00246911       0.00470246
H       -0.47052069       3.54494024       5.83159969       0.00147244      -0.00438078       0.00436883
H       -0.37853614       3.96590009       4.11042376       0.00162389       0.00358293      -0.00218870
H       -2.73823813       2.83708489       5.60376077       0.00651770      -0.00331610       0.00189416
H       -2.71993432       3.75379460       4.10599215       0.00372125       0.00177310      -0.00402657
H       -2.97641538       1.65788991       2.99981285      -0.00507898      -0.00079553       0.00031105
H       -2.63611860       0.80188003       4.50080033       0.00200513      -0.00227936       0.00035638
H       -0.61279496       0.31863786       3.24860962       0.00395542       0.00369275      -0.00375940
H       -0.61714697       1.93208977       2.51020497       0.00102844      -0.00281283      -0.00270242
C       -0.86936346       0.13144590       7.81411807      -0.00510124      -0.00065195       0.00204414
O       -1.13611129       0.70306390       6.77173352       0.00099171       0.00257561      -0.00204385
C       -1.54336994      -1.09571688       8.26649958       0.00509455      -0.00568188      -0.00164949
C       -1.18008094      -1.65297365       9.48829602      -0.00116479      -0.00205401       0.00148305
C       -1.77607830      -2.82567090       9.92054212      -0.00532834       0.00026806      -0.00006989
C       -2.72389176      -3.41001165       9.10217417       0.00209732      -0.00156162      -0.00710118
N       -3.35920435      -4.67537435       9.54643257       0.00044319      -0.00214776       0.00321618
O       -4.16908532      -5.17776514       8.79865347       0.00092723       0.00098136       0.00831028
O       -3.02030045      -5.11549879      10.62212846       0.00112667      -0.00019160       0.00052805
C       -3.10811536      -2.87636089       7.88357738      -0.00514333       0.00503636      -0.00153645
C       -2.50982012      -1.70290190       7.46727782       0.00070346       0.00186092       0.00002859
H       -0.09640119       0.53293272       8.48685165       0.00061374      -0.00630736      -0.00089982
H       -0.42252464      -1.17379871      10.09645445      -0.00177399      -0.00013333       0.00050340
H       -1.51947980      -3.28960642      10.86107814      -0.00302730       0.00344410      -0.00079458
H       -3.85700591      -3.38148195       7.29238516      -0.00423955      -0.00221226       0.00204091
H       -2.78177484      -1.24927953       6.52370861      -0.00162919      -0.00097599       0.00111149
