53
Properties=species:S:1:pos:R:3:forces:R:3 Atoms:=T 53,=T ConfID:=T 1=T 0=T spin=1 charge=1 energy=-30761.92448100908 free_energy=-30761.92448100908 stress="0.06081206724047661 -0.04071575403213501 -0.018260257318615913 -0.04071575403213501 0.07789787650108337 -0.006102766375988722 -0.018260257318615913 -0.006102766375988722 0.054223205894231796" pbc="F F F"
C       -1.43646166       0.27413102      -4.95579983       0.00162531       0.00320459      -0.00060971
C       -1.05214988       0.40223852      -3.52164571      -0.00191374       0.00027099      -0.00013441
C       -1.54845572       1.57726754      -2.74640486      -0.00058759      -0.00146518       0.00332959
N       -0.30540262      -0.48889600      -2.97624358      -0.00219465      -0.00215852       0.00020937
C        0.23196790      -1.67136809      -3.69443663       0.00099446      -0.00034796       0.00170708
C        1.21200770      -2.27944347      -2.70200166       0.00234425       0.00055373       0.00120468
C        0.56910615      -1.95100621      -1.35666946      -0.00038170       0.00057537      -0.00278382
C        0.09374308      -0.51148394      -1.53203036      -0.00186101      -0.00240406       0.00017606
C        1.15160262       0.56580123      -1.21551185      -0.00187461      -0.00320689       0.00055362
N        0.64747639       1.49017528      -0.22354626      -0.00317207      -0.00410201       0.00100042
H       -3.90495656      -0.03026184      -1.27437244       0.00418972      -0.00044948      -0.00069092
C        0.54622372       0.92114124       1.12259480      -0.00018102       0.00161917       0.00172849
C        0.32768339       2.14275830       2.02006947      -0.00129293      -0.00079422       0.00011417
C        0.91661521       3.32496149       1.21505758      -0.00232379       0.00077448       0.00007789
C        1.48575333       2.67741648      -0.04626433      -0.00436978      -0.00557744       0.00153882
H       -0.58193546       0.54124981      -5.58473130      -0.00184531      -0.00229760      -0.00100302
H       -2.25079822       0.95333494      -5.19377648       0.00107079       0.00042014      -0.00267973
H       -1.72820447      -0.74487716      -5.20805357       0.00105289       0.00552228       0.00160469
H       -1.49458956       2.45918656      -3.38882088      -0.00610590      -0.00474179       0.00256663
H       -0.95199232       1.75660775      -1.85158864       0.00682427       0.00030144      -0.00212265
H        0.68151679      -1.35948269      -4.63507340      -0.00073154       0.00023842       0.00286937
H       -0.59793937      -2.34834058      -3.90629125      -0.00203344       0.00399444       0.00218247
H        2.18789137      -1.79904252      -2.79165819       0.00215297       0.00189627       0.00236986
H        1.34465386      -3.34534538      -2.86956725       0.00245555       0.00084398       0.00035705
H       -0.28415825      -2.60729339      -1.17588949       0.00315391       0.00115552      -0.00023959
H        1.25338787      -2.04378247      -0.51602633      -0.00598490       0.00257481      -0.00236728
H       -0.80544488      -0.30550511      -0.95758722      -0.00101173       0.00091199      -0.00049770
H        1.39530509       1.13120385      -2.11851495       0.00285580      -0.00158930       0.00239582
H        2.08478457       0.08118047      -0.88353402      -0.00101363       0.00054155       0.00087904
H        1.48434587       0.40717148       1.38915957      -0.00222707       0.00098303      -0.00254627
H       -0.26302197       0.19046813       1.18884093       0.00233606       0.00600902      -0.00454462
H       -0.73373659       2.29475743       2.21504731       0.00055074       0.00082605       0.00014939
H        0.81328071       2.01248261       2.98490493       0.00257460      -0.00104723      -0.00351909
H        0.13515592       4.03718447       0.95218568      -0.00305027       0.00240289      -0.00406336
H        1.68078595       3.86711478       1.76750742       0.00016869       0.00272226       0.00052324
H        1.43340409       3.31905122      -0.92757849       0.00684585      -0.00351376       0.00405350
H        2.53822591       2.38981027       0.10438395      -0.00244204       0.00425168       0.00073317
C       -3.01388431       1.36312556      -2.33249051      -0.00047349       0.00227232      -0.00312133
O       -3.03727896       0.09975578      -1.67456748      -0.00449146      -0.00055917      -0.00156800
C       -3.48478903       2.48993929      -1.44426754      -0.00261230      -0.00047690      -0.00027266
C       -4.52124706       3.31863140      -1.85354697       0.00266384      -0.00132586       0.00077572
C       -4.95457127       4.35651229      -1.04041562       0.00365507      -0.00325701       0.00446308
C       -4.33428872       4.53260784       0.17912725       0.00117230      -0.00396118      -0.00138121
N       -4.78880240       5.63529090       1.05655805       0.00180835      -0.00006603      -0.00223594
O       -5.66712826       6.35410594       0.63424871      -0.00388498      -0.00142086       0.00401875
O       -4.24782117       5.74188773       2.13617777       0.00602528       0.00518468       0.00033562
C       -3.30315693       3.71989821       0.61749082       0.00526740      -0.00064588       0.00003846
C       -2.87720219       2.69444935      -0.20627535      -0.00112393      -0.00346694      -0.00043919
H       -3.64743228       1.32641349      -3.22561761      -0.00488461       0.00071776      -0.00322909
H       -5.00023738       3.15629454      -2.81163172       0.00093545      -0.00093756       0.00190974
H       -5.75774149       5.01589840      -1.33402551       0.00348390      -0.00104592      -0.00170271
H       -2.85547363       3.90286923       1.58367025      -0.00150729      -0.00063022      -0.00235092
H       -2.06282248       2.05291589       0.10981126      -0.00063091       0.00072018       0.00023719
