53
Properties=species:S:1:pos:R:3:forces:R:3 Atoms:=T 53,=T ConfID:=T 0=T 1=T spin=1 charge=1 energy=-30761.43239221437 free_energy=-30761.43239221437 stress="0.009576023556292057 0.03465910628437996 0.005775711499154568 0.03465910628437996 0.029084570705890656 0.005204248242080212 0.005775711499154568 0.005204248242080212 0.016847888007760048" pbc="F F F"
C       -0.87628996       0.79282706      -5.33468347       0.00101455      -0.00124973      -0.00189738
C       -0.77055970       0.76136038      -3.83723533       0.00416256       0.00704744      -0.00226462
C       -1.38356716       1.68573888      -3.07919722      -0.00277022      -0.00104052      -0.00124423
N        0.02896923      -0.24481577      -3.32209408       0.00281226       0.00696922       0.00090472
C        0.37614152      -1.45324395      -4.07160037      -0.00386876       0.00752552      -0.00048465
C        1.27023063      -2.19984226      -3.09592240      -0.00184168       0.00080731      -0.00832568
C        0.60345213      -1.90874550      -1.75164254       0.00385834      -0.00512351      -0.00323779
C        0.12467107      -0.45463345      -1.88995989       0.00497064      -0.00184132       0.00023467
C        1.08374972       0.58883453      -1.30278947       0.00130470      -0.00006978      -0.00124491
N        0.75813434       0.93562868       0.10897589      -0.00343098      -0.00250286      -0.00211382
H       -0.24867180       1.16314199       0.16096624      -0.00409129       0.00267474       0.00366882
C        1.00941892      -0.12001720       1.13794713       0.00080252       0.00127222      -0.00319986
C        0.84532090       0.63925390       2.44649571      -0.00054091      -0.00155898      -0.00132619
C        1.37950376       2.05806488       2.14639587      -0.00046314      -0.00494598       0.00227856
C        1.50290565       2.13335826       0.61985656      -0.00301170      -0.00164737      -0.00228196
H        0.10963884       0.89727464      -5.79083999       0.00044598       0.00024754      -0.00162576
H       -1.49068632       1.63228079      -5.64752037      -0.00189236      -0.00293190       0.00328717
H       -1.32393457      -0.12373414      -5.72202606       0.00020069      -0.00218741       0.00092992
H       -1.96088178       2.46448653      -3.55406408       0.00140565       0.00074436       0.00026310
H       -1.32368861       1.70925722      -2.00191214      -0.00543266      -0.00310140      -0.00187203
H        0.88419055      -1.20303268      -5.00061847      -0.00111019      -0.00370042       0.00066084
H       -0.51409871      -2.04551420      -4.31588657       0.00283182      -0.00020886       0.00021786
H        2.27893670      -1.78203305      -3.12369258      -0.00196143      -0.00184187      -0.00262219
H        1.33911590      -3.26298219      -3.31513241       0.00090718      -0.00180626       0.00895954
H       -0.25690723      -2.56534093      -1.61353134      -0.00373250       0.00152206       0.00164981
H        1.27295444      -2.05774740      -0.90492152      -0.00085049       0.00027128       0.00554973
H       -0.86210168      -0.32139641      -1.42019450       0.00504322      -0.00267231      -0.00267138
H        1.00242081       1.51060715      -1.87755326       0.00522138       0.00452861       0.00278095
H        2.11970824       0.24652844      -1.32923866       0.00000188      -0.00513002       0.00396279
H        2.02968697      -0.47568466       0.98708807      -0.00159942      -0.00592947      -0.00022246
H        0.31369044      -0.94412269       0.99980237      -0.00031992       0.00805101      -0.00278856
H       -0.20929765       0.67884851       2.71742859       0.00269487      -0.00271100       0.00026292
H        1.37736500       0.14935457       3.25820832       0.00206093       0.00475225      -0.00543200
H        0.69850406       2.81728466       2.52331867       0.00371963      -0.00212550      -0.00024960
H        2.34946649       2.22951111       2.60738737      -0.00257979      -0.00034809       0.00023842
H        1.07111273       3.02396319       0.16976524      -0.00003018       0.00243060       0.00197911
H        2.53308721       2.02981102       0.28096989      -0.00259980       0.00230116       0.00318460
C       -3.05581038       1.78942006       0.16581347       0.00255665       0.00172709       0.00119683
O       -1.87064822       1.84790824       0.44121398       0.00190983       0.00290383       0.00039107
C       -3.86965911       2.94533286      -0.22187879      -0.00269851       0.00042133       0.00401355
C       -5.21202747       2.74234394      -0.52790504      -0.00174591       0.00117076      -0.00180612
C       -6.00359859       3.81103436      -0.91476485      -0.00144512       0.00272347      -0.00147737
C       -5.41651428       5.05894507      -0.98089603       0.00116382      -0.00007718      -0.00221030
N       -6.25562031       6.21138143      -1.39781496      -0.00041420       0.00035144       0.00404320
O       -7.41291998       5.98164648      -1.66821975       0.00313376       0.00186209       0.00036350
O       -5.71983150       7.29672323      -1.43715818      -0.00165340      -0.00377308      -0.00156372
C       -4.08385366       5.29189703      -0.67994984       0.00007767      -0.00101327       0.00090016
C       -3.30479242       4.21891723      -0.29713397       0.00009881      -0.00346675      -0.00364100
H       -3.58075608       0.82030379       0.18935645       0.00131787       0.00316063       0.00366357
H       -5.63827880       1.74857340      -0.46575350       0.00291289      -0.00065002       0.00102197
H       -7.04784047       3.69454946      -1.16209153      -0.00188017       0.00119234       0.00005082
H       -3.68813252       6.29393695      -0.75007643      -0.00288498      -0.00148659      -0.00274650
H       -2.25961539       4.35370894      -0.05470082      -0.00178051      -0.00151728       0.00189168
