53
Properties=species:S:1:pos:R:3:forces:R:3 Atoms:=T 53,=T ConfID:=T 1=T 0=T spin=1 charge=1 energy=-30761.990307425094 free_energy=-30761.990307425094 stress="0.03813129663467407 0.018539413809776306 -0.010175244882702827 0.018539413809776306 -0.03770309314131737 -0.050938937813043594 -0.010175244882702827 -0.050938937813043594 0.006397852674126625" pbc="F F F"
C        4.88452288      -0.64001501       1.92607445      -0.00142201      -0.00104627       0.00203651
C        4.08903062      -1.84038391       1.54520614      -0.00372013      -0.00044787       0.00264529
C        3.41618021      -2.61264952       2.62821315      -0.00266691      -0.00053087       0.00084839
N        4.00231275      -2.16318451       0.29898536      -0.00101525       0.00005857       0.00171043
C        4.69009719      -1.38222481      -0.76751925      -0.00309268       0.00096480      -0.00064545
C        4.47223389      -2.17848148      -2.04997038       0.00030784      -0.00063612      -0.00161857
C        4.19465148      -3.59131577      -1.53978090       0.00479989      -0.00285983      -0.00336320
C        3.32552616      -3.35391466      -0.30618714       0.00499893      -0.00065547      -0.00216317
C        1.87810078      -3.04620041      -0.70065679       0.00447729       0.00186610      -0.00477199
N        0.93311701      -3.05204100       0.39958096       0.00081842      -0.00281176      -0.00729096
H        1.28015529      -1.78896112       1.61842212      -0.00185100       0.00522460       0.00500847
C       -0.38189415      -2.51372710      -0.00192477      -0.00099714      -0.00211164       0.00210549
C       -1.30465716      -2.91112880       1.14939783      -0.00089205      -0.00135574       0.00285431
C       -0.64267230      -4.16868981       1.75909586       0.00146406      -0.00019390       0.00117767
C        0.60867114      -4.39310159       0.90891869      -0.00022218       0.00144847      -0.00336049
H        5.85878922      -0.64300738       1.43677938       0.00079032       0.00168956       0.00354665
H        4.35337825       0.26102009       1.60724092       0.00079234       0.00166418       0.00373799
H        5.02067531      -0.58912817       3.00119261      -0.00071382      -0.00076090       0.00188268
H        2.97448401      -3.52853387       2.24814655       0.00413490      -0.00004400      -0.00420952
H        4.16508300      -2.87332188       3.37909163       0.00073570      -0.00126717      -0.00425754
H        5.74779813      -1.32275047      -0.51299348      -0.00346857      -0.00199983      -0.00264622
H        4.28501432      -0.37184661      -0.79318997      -0.00108030       0.00260887      -0.00348514
H        3.62334108      -1.79030507      -2.61099134      -0.00078266      -0.00284523      -0.00054646
H        5.34417214      -2.12816118      -2.69706586      -0.00005322      -0.00253114      -0.00135626
H        3.69529237      -4.22323946      -2.27044126      -0.00447454      -0.00437359       0.00112114
H        5.12441809      -4.08258585      -1.24902963       0.00339442      -0.00095040       0.00607657
H        3.37392166      -4.18608629       0.39106651      -0.00472058       0.00484809       0.00567827
H        1.83707438      -2.06528388      -1.18007348       0.00140378       0.00440806       0.00294280
H        1.58695337      -3.78580604      -1.46191825      -0.00489730       0.00154168       0.00326070
H       -0.70378071      -2.97925889      -0.94371132       0.00224805      -0.00456705       0.00482422
H       -0.31744110      -1.43627987      -0.15885091       0.00150102      -0.00394974       0.00032031
H       -1.35996730      -2.11102557       1.88579019       0.00267499       0.00326554      -0.00231181
H       -2.31520784      -3.10190037       0.79601901      -0.00144455      -0.00078987       0.00073004
H       -0.37398512      -3.99600631       2.80095990       0.00251432       0.00487263       0.00034000
H       -1.29308942      -5.04016133       1.73504669      -0.00017758       0.00095171       0.00002385
H        0.39434411      -5.06647596       0.06627890       0.00050588       0.00107987      -0.00179190
H        1.43655830      -4.82484054       1.47377580      -0.00315077      -0.00146522      -0.00259309
C        2.28683750      -1.74956463       3.27201776      -0.00177600      -0.00116772      -0.00326877
O        1.57330079      -1.09398502       2.25740416      -0.00133002      -0.00007203       0.00029513
C        2.79493466      -0.73914389       4.27688460       0.00055416       0.00129481      -0.00439725
C        3.50262396      -1.17523495       5.39521974      -0.00022819       0.00071461      -0.00358005
C        4.00057039      -0.26815880       6.31346326       0.00455202       0.00000611      -0.00091707
C        3.77173802       1.07829354       6.09459941       0.00310631       0.00263850       0.00220500
N        4.31981600       2.05917576       7.05655751      -0.00301286       0.00030653       0.00553523
O        4.94484214       1.62291381       7.99907250      -0.00423451      -0.00544331      -0.00546373
O        4.11145155       3.23180541       6.83251047       0.00031623       0.00250546       0.00235380
C        3.04836723       1.53881625       5.01322722       0.00195054       0.00242360       0.00462656
C        2.55473346       0.61751933       4.10098681       0.00530418       0.00319946      -0.00208750
H        1.64350651      -2.45671900       3.81138357       0.00415107      -0.00485118      -0.00450719
H        3.66366483      -2.23409928       5.56398217      -0.00106062      -0.00174588      -0.00214277
H        4.55354148      -0.58335528       7.18573575      -0.00008696      -0.00013120       0.00395569
H        2.88110574       2.59932484       4.89609699      -0.00264039       0.00215971      -0.00011047
H        1.98056868       0.95043259       3.24867077      -0.00228372      -0.00013637       0.00104312
