53
Properties=species:S:1:pos:R:3:forces:R:3 Atoms:=T 53,=T ConfID:=T 0=T 1=T spin=1 charge=1 energy=-30761.447990988327 free_energy=-30761.447990988327 stress="-0.02258695289492607 0.00629033800214529 0.05704621598124504 0.00629033800214529 -0.05523187294602394 -0.03125711902976036 0.05704621598124504 -0.03125711902976036 -0.049786388874053955" pbc="F F F"
C        4.27100305       0.45964631      -0.33764902       0.00100283       0.00006304      -0.00310552
C        3.96412993      -0.90569083       0.21498260       0.00812533       0.00078944       0.00056217
C        4.05906523      -1.12434363       1.53762614      -0.00468355       0.00168866       0.00223778
N        3.51728636      -1.84748286      -0.70554527       0.00425599       0.00305836      -0.00024667
C        3.91254707      -1.79895403      -2.12251157       0.00027807       0.00175007      -0.00073003
C        4.70540407      -3.08380500      -2.31667709      -0.00026480       0.00268813       0.00086575
C        3.90496430      -4.08444337      -1.48671406       0.00210695       0.00079649      -0.00109603
C        3.35860603      -3.24545542      -0.30914547      -0.00081490       0.00160542      -0.00185496
C        1.90820761      -3.63795503      -0.05363535      -0.00334996      -0.00182581       0.00186451
N        1.20479553      -2.82734923       0.98536968      -0.00236246       0.00443538       0.00262769
H        1.83537834      -2.72799436       1.79269886       0.00339259       0.00024458       0.00254729
C        0.75211971      -1.44754296       0.54915806      -0.00423277       0.00571220       0.00210229
C       -0.62315825      -1.23516946       1.19780830      -0.00035241       0.00222550       0.00307838
C       -0.77061254      -2.38770493       2.19613299      -0.00009250       0.00188031       0.00279307
C       -0.02088521      -3.51324148       1.51600347      -0.00273108       0.00083570       0.00182389
H        5.21036906       0.46411277      -0.89232033       0.00079047      -0.00596490      -0.00239902
H        3.48504640       0.80257432      -1.01267869      -0.00280985      -0.00560157      -0.00237188
H        4.36719471       1.17290874       0.47653269       0.00297542      -0.00124762      -0.00426995
H        3.89962189      -2.08359959       2.00816480      -0.00034439      -0.00222597       0.00138239
H        4.38359883      -0.31909462       2.17944203      -0.00065485       0.00016949       0.00120582
H        4.48049647      -0.90329656      -2.34671882      -0.00146925       0.00307414      -0.00005618
H        3.02261881      -1.79583406      -2.76008662       0.00053528      -0.00190214      -0.00199871
H        4.79463149      -3.37688112      -3.36109578       0.00590760       0.00269056       0.00363059
H        5.70902157      -2.96053552      -1.90580724       0.00027644      -0.00203118      -0.00441896
H        3.07935720      -4.48398661      -2.08187362       0.00412784      -0.00284590      -0.00072802
H        4.49584580      -4.92882224      -1.13803044      -0.00141373      -0.00280477      -0.00076073
H        3.94895051      -3.44288731       0.58844973      -0.00153883      -0.00093081      -0.00208489
H        1.31741290      -3.54961369      -0.96669949      -0.00379758       0.00250859       0.00030561
H        1.87352243      -4.67590018       0.28011490       0.00061983      -0.00758083       0.00111980
H        0.72111228      -1.43788460      -0.53678167      -0.00254128       0.00040505       0.00177160
H        1.50858379      -0.74084829       0.87797365      -0.00029331      -0.00019043       0.00011816
H       -0.69483315      -0.25951894       1.67284491       0.00176954       0.00354917      -0.00209893
H       -1.40637854      -1.29131227       0.44251983       0.00038134      -0.00186884       0.00413231
H       -0.29275518      -2.15049547       3.14931710       0.00450781       0.00332396       0.00091593
H       -1.80746816      -2.64665923       2.39659539       0.00215331      -0.00643992      -0.00000585
H       -0.56862563      -3.90558178       0.65809557      -0.00408733      -0.00311801      -0.00066993
H        0.29060979      -4.32848436       2.16327315       0.00372680      -0.00661906      -0.00553738
C        2.87686826      -3.45932735       4.53806073       0.00228967       0.00138835       0.00076187
O        2.39701482      -3.57755496       3.42715882      -0.00082621       0.00194880      -0.00325987
C        3.04768155      -2.17828188       5.24134317       0.00104294       0.00280759      -0.00386668
C        3.65882950      -2.17621490       6.49123843      -0.00633537      -0.00172699      -0.00131531
C        3.84383533      -0.98310634       7.17219872       0.00031353      -0.00238085      -0.00161876
C        3.40607404       0.17947599       6.57059805      -0.00080504       0.00014402       0.00299846
N        3.60155972       1.46467442       7.28749402      -0.00199502       0.00020744       0.00297333
O        4.10694100       1.41258031       8.38537913       0.00672291       0.00156111       0.00649325
O        3.24036703       2.47190463       6.71932181      -0.00228553       0.00281524      -0.00250339
C        2.79267457       0.20909811       5.32842387       0.00044252       0.00194162       0.00267995
C        2.61359561      -0.98581105       4.66277819      -0.00394345       0.00395809      -0.00038227
H        3.22006506      -4.35419830       5.08158499       0.00139958      -0.00263273      -0.00181155
H        3.99266809      -3.10737379       6.93227177      -0.00241310      -0.00016982      -0.00057557
H        4.31405059      -0.94150353       8.14317682      -0.00145583      -0.00185442      -0.00141084
H        2.47580985       1.15395878       4.91287322      -0.00278039       0.00027931       0.00343859
H        2.14998957      -1.00217872       3.68575090       0.00152999       0.00141682      -0.00325272
