53
Properties=species:S:1:pos:R:3:forces:R:3 Atoms:=T 53,=T ConfID:=T 1=T 0=T spin=1 charge=1 energy=-30761.915063475204 free_energy=-30761.915063475204 stress="-0.008312154561281204 -0.01438361406326294 0.06486468762159348 -0.01438361406326294 0.0014495912473648787 0.048535458743572235 0.06486468762159348 0.048535458743572235 -0.016567038372159004" pbc="F F F"
C        3.69063528       3.16719641       3.12788518      -0.00079031       0.00125093      -0.00128443
C        3.82256084       1.87786844       3.86282194       0.00537535      -0.00029864      -0.00337677
C        4.98387392       1.74891115       4.78098515       0.00418977      -0.00202840      -0.00095844
N        3.06007775       0.86475974       3.64415836       0.00016353       0.00242069       0.00610092
C        3.08514525      -0.39255043       4.44804523      -0.00429012      -0.00226785       0.00064716
C        1.85457079      -1.18365540       3.98832528      -0.00494919       0.00063073       0.00179150
C        1.03769113      -0.19617839       3.14450336       0.00379132       0.00480427       0.00067938
C        2.09912938       0.70461437       2.52669985       0.00534759       0.00311768       0.00452584
C        2.82361236       0.00240170       1.37033282      -0.00122249      -0.00098931      -0.00146669
N        3.99056145       0.71175670       0.88190131       0.00306621       0.00273725       0.00272304
H        5.36640039       0.63706597       2.30046203      -0.00057067      -0.00471896      -0.00156387
C        3.68082383       1.82503081      -0.02802011       0.00263881       0.00251428      -0.00082438
C        5.03852901       2.17590491      -0.63363709       0.00156527       0.00303091      -0.00481279
C        5.82084394       0.84126143      -0.60444459       0.00069985       0.00308686      -0.00162075
C        4.85573969      -0.14854882       0.04763015       0.00387563       0.00325241       0.00179958
H        2.70782126       3.32594133       2.69737959      -0.00142616      -0.00003242      -0.00461115
H        4.43031056       3.19665022       2.32398929       0.00203628       0.00121236       0.00089639
H        3.91618622       3.98555182       3.80991689      -0.00003131      -0.00203746       0.00449025
H        4.86954210       0.94244898       5.49946608       0.00489023       0.00095654       0.00450470
H        5.16190049       2.67969878       5.31822276      -0.00167025      -0.00026255      -0.00308580
H        3.02582686      -0.11709044       5.49886914       0.00206494      -0.00574580      -0.00163954
H        4.02812253      -0.90534780       4.26730685      -0.00716391      -0.00203381      -0.00095559
H        2.15490578      -2.04720744       3.39834672      -0.00321736      -0.00058052       0.00429921
H        1.29007337      -1.55570197       4.83931840      -0.00688868      -0.00145061       0.00060457
H        0.37132311       0.39575011       3.77245080      -0.00326764      -0.00297532      -0.00119061
H        0.43331892      -0.68886978       2.38508145       0.00413271       0.00355164       0.00356210
H        1.71504615       1.67308323       2.21976678      -0.00008171      -0.00123293       0.00035936
H        3.14811413      -0.98383348       1.70948150      -0.00110589      -0.00194991       0.00220537
H        2.08469120      -0.16124653       0.57253528      -0.00442381      -0.00532879      -0.00447580
H        2.98608321       1.47897062      -0.80726575       0.00224998       0.00210733       0.00072426
H        3.20573273       2.65739107       0.48969392      -0.00409275      -0.00001705      -0.00242401
H        5.54413258       2.93339999      -0.03306842      -0.00021031      -0.00074941       0.00076584
H        4.93211259       2.58108788      -1.63726474      -0.00045586       0.00357170      -0.00585604
H        6.11483094       0.50966452      -1.59756363       0.00086689      -0.00048209       0.00074189
H        6.72899470       0.93570848      -0.01026492      -0.00015818      -0.00096595      -0.00169023
H        5.34977129      -0.90473966       0.65870831      -0.00176381       0.00040064       0.00160973
H        4.24949563      -0.66154032      -0.71145874       0.00516575      -0.00294941       0.00676304
C        6.22795079       1.42540081       3.88206880       0.00075213       0.00000061       0.00362887
O        5.94575074       0.33977817       3.03267891      -0.00277863       0.00567384      -0.00643930
C        7.39437550       1.09300997       4.77868097      -0.00015089       0.00144745       0.00424774
C        8.17501243       2.11749784       5.30196774       0.00085279       0.00024358       0.00013932
C        9.21869967       1.83321567       6.16701691      -0.00101873       0.00205237      -0.00082622
C        9.45845423       0.51189239       6.49168591      -0.00431916       0.00090825      -0.00459863
N       10.57127360       0.19633726       7.41448609      -0.00392221       0.00346810      -0.00007884
O       11.22589909       1.12651265       7.83257426      -0.00148108      -0.00249707       0.00162811
O       10.74925438      -0.97034319       7.69021590       0.00210992       0.00452234       0.00038064
C        8.70359883      -0.52692319       5.98197160      -0.00030312      -0.00233695      -0.00325405
C        7.66294780      -0.22806672       5.11783804       0.00149585       0.00134526      -0.00136697
H        6.47391222       2.32072227       3.29953440       0.00061816      -0.00726853      -0.00221595
H        7.98191460       3.14748892       5.02427129      -0.00484568      -0.00477066       0.00008211
H        9.84528083       2.60926633       6.58052604      -0.00017757      -0.00026351       0.00091031
H        8.93791056      -1.54355267       6.26032765       0.00571862      -0.00256465      -0.00283051
H        7.07172625      -1.02465412       4.68792570       0.00310989       0.00049103       0.00263627
