53
Properties=species:S:1:pos:R:3:forces:R:3 Atoms:=T 53,=T ConfID:=T 0=T 1=T spin=1 charge=1 energy=-30761.549544905258 free_energy=-30761.549544905258 stress="-0.0018799141980707645 -0.029453730210661888 -0.005249768029898405 -0.029453730210661888 0.009957185946404934 -0.005061769858002663 -0.005249768029898405 -0.005061769858002663 -0.11011618375778198" pbc="F F F"
C        3.47486588       3.38791226       2.79290405      -0.00095204       0.00298676       0.00152847
C        3.93063091       2.57807140       3.97307109      -0.00083705       0.00195914       0.00003291
C        4.45102774       3.20405743       5.03837907      -0.00035500       0.00069751       0.00441939
N        3.85797859       1.18274985       3.89282644      -0.00197671       0.00129388      -0.00067563
C        3.97151189       0.44835120       5.16598112       0.00145936       0.00028246       0.00269117
C        3.31144502      -0.89828715       4.91070128       0.00047025       0.00110436       0.00443056
C        2.22793337      -0.53881211       3.89589045       0.00098875      -0.00212252       0.00104764
C        2.94322657       0.46893220       2.98955653       0.00065861       0.00098638      -0.00269762
C        3.70313326      -0.31010140       1.91238602       0.00140197       0.00231539      -0.00228742
N        4.48501648       0.55716704       0.99607870      -0.00170680       0.00332164      -0.00414064
H        5.03937061       1.21945771       1.56860908       0.00175876      -0.00102027      -0.00085539
C        3.68226020       1.31731489      -0.01362116      -0.00454638      -0.00305515      -0.00205479
C        4.74994792       1.88966327      -0.93266014      -0.00552998      -0.00393974       0.00179950
C        5.85459526       0.80851181      -0.96161710       0.00043482      -0.00378813      -0.00089942
C        5.48155104      -0.17950275       0.14888558       0.00113072       0.00011949      -0.00185799
H        2.43102870       3.20580203       2.53229859       0.00020918      -0.00509694      -0.00303841
H        4.09703908       3.19933528       1.91529293       0.00543313       0.00373850       0.00028999
H        3.56981404       4.44474437       3.02732251      -0.00223022      -0.00086407       0.00093072
H        4.80344252       2.68664999       5.91724198       0.00311285      -0.00226965       0.00091071
H        4.50127403       4.28243188       5.04561362      -0.00078448       0.00243282       0.00440898
H        3.42885025       0.99673410       5.94320895      -0.00245013       0.00030199       0.00146669
H        5.01163686       0.36469739       5.48209536       0.00163798      -0.00285097       0.00029369
H        4.02231007      -1.61533180       4.49408266      -0.00228927       0.00090958       0.00443688
H        2.91042491      -1.33321441       5.82312407      -0.00472352      -0.00003144       0.00388270
H        1.39556285      -0.04260536       4.39637559       0.00112972      -0.00514532      -0.00203117
H        1.83025229      -1.39475428       3.35075592       0.00105869       0.00008012      -0.00175601
H        2.23683034       1.15091861       2.51843677      -0.00042203      -0.00104933      -0.00148410
H        4.41262432      -0.98933462       2.38588009      -0.00118103       0.00211048       0.00083131
H        3.01704385      -0.89474507       1.29721614       0.00106007       0.00351396       0.00053423
H        3.05118457       0.58458831      -0.51912429       0.00555098      -0.00375722      -0.00403327
H        3.05329724       2.05285137       0.47634241      -0.00071207      -0.00215257      -0.00133794
H        5.13843675       2.81859824      -0.51582712       0.00080255      -0.00076578       0.00131612
H        4.34498888       2.10952929      -1.91712580       0.00283397      -0.00024180      -0.00287153
H        5.89741810       0.29403292      -1.91875698       0.00056969       0.00584947      -0.00215576
H        6.83107445       1.24928098      -0.77674286      -0.00250302      -0.00366955       0.00121531
H        6.31576740      -0.48877786       0.77280332      -0.00583832       0.00165960      -0.00239080
H        4.97408101      -1.06498973      -0.23340730       0.00267630       0.00316113       0.00183852
C        6.95096728       2.45271093       3.17477481       0.00488237       0.00075254      -0.00092349
O        6.48758517       2.20681707       2.07713800      -0.00126880       0.00071242       0.00295487
C        7.28218268       1.42264245       4.17824362       0.00062476       0.00012599      -0.00324314
C        7.65191838       1.81881020       5.45873672      -0.00648328       0.00159094      -0.00121859
C        7.92574041       0.86833782       6.42958193       0.00444390       0.00031499       0.00022267
C        7.83329558      -0.46451770       6.07846117       0.00124435      -0.00169109       0.00052197
N        8.10717645      -1.49204869       7.11341810      -0.00153899       0.00290358      -0.00247045
O        8.43249452      -1.09824209       8.21004440       0.00231904       0.00250836       0.00555013
O        7.97679885      -2.65142874       6.78539897      -0.00296667      -0.00590389      -0.00254933
C        7.49586916      -0.89010536       4.80415696       0.00040636      -0.00027527       0.00191199
C        7.21682901       0.07011654       3.85137921       0.00018756      -0.00028042       0.00020789
H        7.16613223       3.49264865       3.46183714       0.00067189      -0.00177860      -0.00045515
H        7.70715843       2.87272829       5.70151950       0.00277272       0.00203475      -0.00097398
H        8.20453429       1.14007057       7.43679212       0.00222848      -0.00172317      -0.00005923
H        7.46347450      -1.94766560       4.58730885      -0.00287178      -0.00032321       0.00029909
H        6.96146635      -0.21960660       2.84178893       0.00000779       0.00402788      -0.00151257
