53
Properties=species:S:1:pos:R:3:forces:R:3 Atoms:=T 53,=T ConfID:=T 1=T 0=T spin=1 charge=1 energy=-30761.716103170944 free_energy=-30761.716103170944 stress="0.05443601310253143 0.0033935212995857 -0.02893291972577572 0.0033935212995857 0.012173730880022049 -0.0036365215200930834 -0.02893291972577572 -0.0036365215200930834 0.003923838958144188" pbc="F F F"
C       -1.32236510       1.26384694      -3.14712964      -0.00397289       0.00156153      -0.00191628
C       -1.70115787       1.60272869      -1.74608446      -0.00174639       0.00194766       0.00210551
C       -2.83353454       2.54112482      -1.51795220      -0.00773166       0.00236717      -0.00364702
N       -1.09589670       1.04929287      -0.75519314       0.00035963      -0.00138155      -0.00005428
C       -1.28747983       1.40071137       0.67834953       0.00105710       0.00221847       0.00322376
C       -0.43875492       0.37774495       1.42550640       0.00289183      -0.00110102       0.00033323
C        0.65336978       0.02402897       0.41733344       0.00030617      -0.00115580       0.00221013
C       -0.09741080      -0.03171224      -0.90938300       0.00526365      -0.00631044       0.00264346
C       -0.77626713      -1.40869904      -1.20158171       0.00162845      -0.00340505       0.00416318
N       -2.22419931      -1.41100732      -1.38095129       0.00185955      -0.00109213       0.00560380
H       -3.55324914      -0.01629662      -2.18865691      -0.00152943      -0.00082635      -0.00380025
C       -2.97910899      -1.59673609      -0.12874003      -0.00243278      -0.00154692       0.00323296
C       -4.37769167      -2.03329414      -0.57710345      -0.00025394       0.00143639       0.00227872
C       -4.16619223      -2.62008232      -1.99108101      -0.00268346      -0.00057506       0.00174622
C       -2.65646139      -2.56286101      -2.20083347       0.00204222       0.00183480      -0.00232921
H       -1.19126222       0.19305579      -3.28553619       0.00149696      -0.00009695      -0.00411658
H       -2.07835317       1.62181963      -3.83764521      -0.00756825      -0.00280849       0.00220808
H       -0.37352180       1.75984910      -3.37874739      -0.00255012      -0.00061203       0.00333188
H       -2.93246581       3.20639773      -2.37423681       0.00637085       0.00228590      -0.00493616
H       -2.71371835       3.14137140      -0.61670145      -0.00323942       0.00136975      -0.00815427
H       -2.34302541       1.37284478       0.93713774      -0.00280178      -0.00190154       0.00487511
H       -0.91748940       2.41618966       0.82414064       0.00327484       0.00669502      -0.00100272
H       -0.04492982       0.78810006       2.35196808      -0.00340343      -0.00283329       0.00250638
H       -1.03069746      -0.50343654       1.67455695      -0.00378161       0.00277059      -0.00620218
H        1.40935343       0.81048470       0.38301998       0.00023941      -0.00760995       0.00144545
H        1.15673634      -0.91522390       0.63678163      -0.00476311       0.00305292      -0.00104846
H        0.55327995       0.23031997      -1.74047924      -0.00147981       0.00020504       0.00028652
H       -0.49603680      -2.10347496      -0.39796877       0.00212950       0.00045282       0.00378630
H       -0.32602238      -1.79983004      -2.11450767      -0.00045527       0.00552634       0.00262439
H       -2.99207639      -0.68428174       0.46869229      -0.00123337       0.00166589      -0.00423575
H       -2.50483538      -2.38201151       0.47785610       0.00692917       0.00117342      -0.00153828
H       -4.79386248      -2.76042627       0.11673466       0.00146194       0.00141219      -0.00121304
H       -5.06419841      -1.18798212      -0.61073454      -0.00134314      -0.00112545      -0.00037374
H       -4.54004501      -3.63715362      -2.07998807      -0.00065460      -0.00335476      -0.00495777
H       -4.68131785      -2.01601274      -2.73699845      -0.00351460       0.00124347       0.00145321
H       -2.36170812      -2.41944243      -3.24070516      -0.00143562       0.00297385      -0.00858856
H       -2.18038547      -3.48322449      -1.83521002       0.00633872       0.00058405      -0.00058588
C       -4.13172933       1.67544030      -1.40841071      -0.00082774       0.00134852       0.00155659
O       -4.16523667       0.70461689      -2.43000591       0.00511050       0.00393304       0.00368833
C       -5.34170501       2.56888503      -1.50241658       0.00024952      -0.00148495      -0.00179946
C       -5.85983296       3.15017533      -0.35112319       0.00003038      -0.00641837      -0.00052241
C       -6.94760451       4.00467574      -0.42346081       0.00558807       0.00012558       0.00177668
C       -7.49769570       4.25789244      -1.66487614       0.00306835      -0.00045365       0.00427300
N       -8.66180079       5.16746167      -1.75285039      -0.00134211      -0.00266433      -0.00123177
O       -9.07326889       5.64349805      -0.71690414       0.00269732       0.00073132      -0.00081009
O       -9.12180452       5.37460443      -2.85442705      -0.00053846       0.00054566      -0.00073978
C       -7.00821647       3.68929752      -2.82557032       0.00274768       0.00424798       0.00135288
C       -5.91849510       2.83872214      -2.73851649      -0.00531870      -0.00636914       0.00265429
H       -4.13291694       1.18917689      -0.42514551      -0.00127599      -0.00183369      -0.00134432
H       -5.42611438       2.92439763       0.61666985       0.00250173       0.00313455      -0.00310696
H       -7.37502925       4.46216735       0.45622761       0.00120009       0.00265283      -0.00217366
H       -7.48067109       3.91329242      -3.77038951      -0.00182782      -0.00048635       0.00108137
H       -5.52947754       2.36692504      -3.63040844       0.00286134      -0.00204967       0.00398749
