53
Properties=species:S:1:pos:R:3:forces:R:3 Atoms:=T 53,=T ConfID:=T 0=T 1=T spin=1 charge=1 energy=-30761.50928220613 free_energy=-30761.50928220613 stress="0.02610401250422001 0.031076807528734207 0.010484323836863041 0.031076807528734207 -0.054652243852615356 -0.0008504295255988836 0.010484323836863041 -0.0008504295255988836 0.018186824396252632" pbc="F F F"
C       -2.15026280       1.87792868      -2.65797760       0.00376007       0.00292602      -0.00121004
C       -1.94001154       2.11476753      -1.18986083       0.00200979       0.00321271      -0.00099436
C       -2.26945076       3.28884300      -0.64114328      -0.00162067      -0.00043781      -0.00037815
N       -1.47059708       1.02814787      -0.42823341       0.00136023       0.00511733       0.00017405
C       -1.13612520       1.31055820       0.96902130      -0.00313246       0.00159104      -0.00019898
C       -0.47461064       0.03863432       1.46218021      -0.00288467       0.00304321      -0.00008680
C        0.29538486      -0.44415464       0.23158149      -0.00126102      -0.00179617       0.00307057
C       -0.48397058       0.08916784      -0.99089607      -0.00141525       0.00108034       0.00192853
C       -1.14083470      -0.99765878      -1.85637471       0.00024048      -0.00016750      -0.00290611
N       -2.43781049      -1.47581366      -1.30843369       0.00202442      -0.00401930       0.00282265
H       -2.92353116      -0.65274409      -0.90728927       0.00302605      -0.00421638       0.00220316
C       -2.37677404      -2.53525478      -0.25472571      -0.00229664      -0.00751272       0.00323133
C       -3.82903398      -2.96617364      -0.12690136      -0.00702748      -0.00095870      -0.00104880
C       -4.38937316      -2.86558141      -1.56243522       0.00190443       0.00791831       0.00176777
C       -3.34699157      -2.06447968      -2.34954248      -0.00071681       0.00573762      -0.00077260
H       -2.87903563       1.07920997      -2.82600811       0.00450031       0.00366442       0.00225072
H       -2.53677060       2.78151191      -3.12261502       0.00350093       0.00235477       0.00174750
H       -1.22388614       1.61452599      -3.17185444       0.00125883      -0.00397891       0.00041669
H       -2.67532372       4.07051691      -1.26639945      -0.00349348      -0.00399910      -0.00131324
H       -2.13363338       3.51784813       0.40485003      -0.00039267      -0.00111464      -0.00056923
H       -2.03693835       1.56697670       1.52772834       0.00040690       0.00265509       0.00077611
H       -0.44763784       2.16247919       1.03450755      -0.00239383      -0.00315602       0.00079329
H        0.17643890       0.21698321       2.31522056      -0.00077262       0.00050835      -0.00467473
H       -1.23168589      -0.67830386       1.78236348       0.00215699       0.00009834      -0.00064921
H        1.29460701      -0.01064374       0.23144716      -0.00132228       0.00102344      -0.00235805
H        0.42376049      -1.52628919       0.19978017      -0.00033018      -0.00525337       0.00428587
H        0.21457318       0.60535202      -1.65735478      -0.00262845       0.00058941       0.00123755
H       -0.47965508      -1.85779233      -1.96533127       0.00025295      -0.00173175      -0.00251957
H       -1.35464513      -0.61235289      -2.84972309      -0.00490931      -0.00030506      -0.00585019
H       -1.93748571      -2.13574233       0.65259017       0.00065666       0.00432563       0.00211028
H       -1.74093841      -3.33194810      -0.64342104       0.00372848      -0.00304391      -0.00730757
H       -3.91049819      -3.96658316       0.29082691       0.00282948       0.00193762       0.00094331
H       -4.35922307      -2.28285826       0.53601814       0.00489793      -0.00601877       0.00122329
H       -4.52460625      -3.84682332      -2.01147177       0.00193710      -0.00122718      -0.00598547
H       -5.35103292      -2.35974348      -1.56803094      -0.00431653      -0.00109070      -0.00292695
H       -3.75878621      -1.25190508      -2.94194482       0.00024263      -0.00565772       0.00066489
H       -2.72726050      -2.69796339      -2.98374955      -0.00429895       0.00040319       0.00456716
C       -4.90727602       1.39682827      -0.51695988       0.00679120       0.00374373       0.00087421
O       -4.58425845       0.32068562      -0.98263130       0.00266450       0.00056107       0.00161802
C       -5.60692665       2.44867873      -1.27202498      -0.00093203      -0.00027814      -0.00376862
C       -5.91412901       3.64204990      -0.62636641       0.00074690      -0.00305477      -0.00257607
C       -6.54976505       4.66025084      -1.31600152      -0.00134988      -0.00052061       0.00234255
C       -6.85855343       4.44663751      -2.64579246       0.00066806       0.00353116       0.00335576
N       -7.53120358       5.53545977      -3.39694682       0.00236644       0.00261815      -0.00139309
O       -7.78052779       6.55268648      -2.78957719      -0.00138676       0.00126891      -0.00002858
O       -7.77927492       5.32866124      -4.56431039      -0.00179158      -0.00168323      -0.00349641
C       -6.57028745       3.26806905      -3.31346527      -0.00474061       0.00399840       0.00540444
C       -5.93769009       2.25923302      -2.61237676      -0.00230787      -0.00037078      -0.00241854
H       -4.68615496       1.63583813       0.53586838       0.00655951       0.00162963       0.00592954
H       -5.64685930       3.77652691       0.41482868      -0.00537181       0.00145588      -0.00311277
H       -6.80353071       5.60013815      -0.84933161      -0.00232965       0.00012321      -0.00563543
H       -6.84481993       3.16403564      -4.35267180       0.00466164      -0.00463387       0.00612163
H       -5.69967502       1.31953010      -3.09232480       0.00027072      -0.00089003       0.00231871
