53
Properties=species:S:1:pos:R:3:forces:R:3 Atoms:=T 53,=T ConfID:=T 1=T 0=T spin=1 charge=1 energy=-30761.837047670913 free_energy=-30761.837047670913 stress="0.06836261600255966 0.039772745221853256 -0.010882406495511532 0.039772745221853256 0.023751670494675636 -0.040261730551719666 -0.010882406495511532 -0.040261730551719666 -0.08036229759454727" pbc="F F F"
C       -1.09300570       2.00491499       1.51287698      -0.00074614      -0.00373010      -0.00057256
C       -0.15297318       1.11607903       2.24175145      -0.00039880       0.00187090       0.00354028
C        0.90286506       1.79698059       3.04510225      -0.00147451       0.00369808       0.00242271
N       -0.17328035      -0.16883183       2.15174174       0.00270570       0.00174469       0.00364131
C        0.60450375      -1.08340542       3.03385813       0.00088658       0.00601636       0.00103039
C        0.08296893      -2.48982030       2.71206941       0.00546934       0.00208988       0.00438200
C       -1.16373197      -2.26737353       1.84619236       0.00101714      -0.00095858      -0.00013889
C       -0.86991935      -0.96537250       1.11424720       0.00297789       0.00197002       0.00082411
C        0.11581867      -1.16664238      -0.04491384       0.00032425       0.00171882      -0.00070197
N        0.59345959       0.06785606      -0.64109420       0.00071115      -0.00139836      -0.00161876
H        1.47974513       1.51374296       0.37691354       0.00173587      -0.00016441      -0.00390095
C        1.82550827      -0.14302357      -1.43216096      -0.00082227       0.00070416       0.00121957
C        1.95482604       1.12873251      -2.27639460      -0.00188447      -0.00382303      -0.00190734
C        0.52383884       1.71352120      -2.31980857      -0.00084657      -0.00142953      -0.00011523
C       -0.33074286       0.65847389      -1.62349789       0.00141154      -0.00192986      -0.00004960
H       -0.51191937       2.67904724       0.88077428      -0.00137682      -0.00506531       0.00106242
H       -1.84661014       1.49455203       0.92679319       0.00428228       0.00329174      -0.00226943
H       -1.58490962       2.62943600       2.26275213      -0.00186053       0.00280134       0.00221398
H        1.11677076       1.29409356       3.98766678      -0.00526023      -0.00019333      -0.00043651
H        0.59751457       2.82010800       3.25701711       0.00496203       0.00528398       0.00111761
H        0.41121736      -0.79380303       4.06484319       0.00071971      -0.00159092      -0.00205731
H        1.66951687      -0.97538324       2.83824513      -0.00287360       0.00391510      -0.00286647
H        0.83648113      -3.06066996       2.17326466       0.00145445       0.00127434      -0.00297630
H       -0.14664669      -3.03821192       3.62190370       0.00039576      -0.00455326       0.00164789
H       -1.34554746      -3.08851894       1.15575184      -0.00329764       0.00163600      -0.00838470
H       -2.05277668      -2.14845684       2.46564844       0.00007238      -0.00004303       0.00336335
H       -1.76899268      -0.45493741       0.78378316       0.00315712       0.00260281       0.00174123
H        0.98173593      -1.71893795       0.32927725      -0.00436556      -0.00377488      -0.00150882
H       -0.37419270      -1.81173546      -0.78864424       0.00499587      -0.00172549      -0.00012830
H        1.70994258      -1.02717678      -2.07315554       0.00176132       0.00492212       0.00216215
H        2.67543683      -0.31414181      -0.76929174      -0.00031300      -0.00594298      -0.00387437
H        2.64681543       1.83215327      -1.81690287      -0.00491183      -0.00341478      -0.00188871
H        2.33461164       0.89584038      -3.26846289      -0.00152315       0.00143744      -0.00312308
H        0.48044963       2.65679038      -1.77441915       0.00034620      -0.00138685       0.00207967
H        0.17594270       1.90580823      -3.33209976      -0.00231394       0.00068596      -0.00048753
H       -0.65562389      -0.11420692      -2.33553933      -0.00260059       0.00151457      -0.00079391
H       -1.22080471       1.06885788      -1.14747819       0.00151060      -0.00446592      -0.00066603
C        2.20130323       1.83401508       2.17027054      -0.00083362       0.00073790       0.00244696
O        1.91057104       2.25077277       0.85827545       0.00022837       0.00318261       0.00352924
C        3.19703249       2.77171909       2.80457034      -0.00120487       0.00117926      -0.00025735
C        4.00971266       2.31476523       3.83609590       0.00264278      -0.00179835      -0.00250281
C        4.90938174       3.16731482       4.45261631      -0.00321334      -0.00037298       0.00449421
C        4.97341182       4.47650748       4.01562106       0.00079542      -0.00128246      -0.00096028
N        5.93840126       5.39357459       4.66160440      -0.00276255      -0.00096081       0.00027345
O        6.63204740       4.93682799       5.54450381      -0.00217408      -0.00023944       0.00413048
O        5.96862125       6.53768694       4.26388741      -0.00274621       0.00307921      -0.00074298
C        4.17929538       4.95840726       2.99305703       0.00351877      -0.00216179      -0.00331331
C        3.28347337       4.09360831       2.38460485      -0.00147597       0.00230479       0.00212057
H        2.63436460       0.82673659       2.15768023      -0.00501716      -0.00118718      -0.00136414
H        3.95751209       1.27934046       4.15402505      -0.00059268      -0.00147433      -0.00042251
H        5.55908495       2.83561280       5.24844704       0.00311443      -0.00202259       0.00342505
H        4.27431492       5.98889218       2.68426530      -0.00121431      -0.00301609      -0.00025251
H        2.66398523       4.44066748       1.56955812       0.00690742       0.00044431      -0.00258618
