53
Properties=species:S:1:pos:R:3:forces:R:3 Atoms:=T 53,=T ConfID:=T 0=T 1=T spin=1 charge=1 energy=-30761.52094898088 free_energy=-30761.52094898088 stress="0.022144565358757973 -0.016267742961645126 -0.01856820099055767 -0.016267742961645126 -0.009500398300588131 -0.043358612805604935 -0.01856820099055767 -0.043358612805604935 -0.054976098239421844" pbc="F F F"
C       -0.12116034       1.85893351       2.45295668       0.00067542      -0.00218799      -0.00385358
C        0.50250176       0.56629036       2.89462830       0.00369569      -0.00001961      -0.00361967
C        1.24273236       0.52391465       4.01099668       0.00200977       0.00022921       0.00267629
N        0.30368143      -0.56317448       2.09352720       0.00206936       0.00288130      -0.00159932
C        0.43154406      -1.88173970       2.74288686      -0.00583697       0.00275115      -0.00108467
C       -0.53576563      -2.80722988       2.00076387       0.00481283       0.00738188      -0.00440847
C       -1.56033326      -1.84188543       1.40171771       0.00205804       0.00349033       0.00252075
C       -0.69807719      -0.63385517       1.02882355       0.00045419      -0.00054299       0.00145961
C       -0.02141887      -0.90206348      -0.31695692      -0.00160363      -0.00349713       0.00258432
N        0.94103586       0.16581939      -0.69810498       0.00071982      -0.00159146       0.00115239
H        1.47664386       0.43454020       0.14318571       0.00480321       0.00291601      -0.00008092
C        1.96019234      -0.29892025      -1.71482840       0.00190708       0.00078149      -0.00137449
C        2.20413893       0.91268478      -2.59400055      -0.00073154       0.00218339      -0.00277624
C        0.80573483       1.51797259      -2.69279097      -0.00358269       0.00164274      -0.00174647
C        0.30194287       1.42209646      -1.25904366      -0.00059861       0.00207090      -0.00007771
H        0.19399161       2.13887466       1.44558296      -0.00749687       0.00154148      -0.00150337
H       -1.21175537       1.81031466       2.46606989      -0.00017935      -0.00213669      -0.00562646
H        0.18325123       2.65576520       3.12698234      -0.00175748       0.00154335      -0.00146770
H        1.71818962      -0.37732629       4.36984332      -0.00344861       0.00592997       0.00094015
H        1.35856936       1.41771312       4.60557508       0.00491993      -0.00397305       0.00071849
H        0.14034739      -1.77977200       3.79140993       0.00312582      -0.00274793       0.00485698
H        1.46073106      -2.24388098       2.71988210      -0.00118516      -0.00072485       0.00222564
H       -0.02585097      -3.37171662       1.21908894      -0.00050615      -0.00478885      -0.00377285
H       -0.98776394      -3.53319739       2.67280387      -0.00103518       0.00621087      -0.00275291
H       -2.10781961      -2.25662208       0.55497286       0.00174340      -0.00207610       0.00514584
H       -2.28674202      -1.53906020       2.15658539       0.00047973      -0.00215690       0.00032240
H       -1.28053255       0.28435895       0.97276237       0.00009595      -0.00498901      -0.00054847
H        0.54945747      -1.82824105      -0.25594456      -0.00529254      -0.00558248      -0.00122177
H       -0.74921573      -0.99578917      -1.12455511      -0.00329871      -0.00072106       0.00306013
H        1.50561022      -1.11141753      -2.28079053      -0.00075046      -0.00408034       0.00263097
H        2.83089072      -0.67085021      -1.18055532       0.00442490      -0.00199076      -0.00239389
H        2.89093550       1.60526258      -2.10523971      -0.00122393      -0.00163195      -0.00537354
H        2.62346495       0.63111192      -3.55711425      -0.00277500       0.00106719      -0.00057199
H        0.80027681       2.54611688      -3.04738471       0.00198100      -0.00019378       0.00403106
H        0.18025010       0.92682470      -3.36443371       0.00109205       0.00277140      -0.00057308
H       -0.77804486       1.34728126      -1.15799941       0.00254384       0.00279841       0.00443330
H        0.66386347       2.25622392      -0.66276951       0.00216882      -0.00543015      -0.00075376
C        3.31615807       1.61181090       1.91045401       0.00042739      -0.00083789      -0.00180661
O        2.72958763       1.55865002       0.84395889      -0.00011764       0.00025295      -0.00136335
C        3.53257580       2.85825516       2.66070837      -0.00525497      -0.00239112       0.00085891
C        4.24982222       2.81064643       3.85162133      -0.00109544      -0.00084702      -0.00128328
C        4.46261138       3.96936554       4.57947636       0.00294410       0.00023914      -0.00113727
C        3.94021596       5.14913100       4.08574991      -0.00094678       0.00022125       0.00199821
N        4.16106970       6.39715537       4.85776363      -0.00327285      -0.00081291       0.00118550
O        4.80332252       6.30770555       5.87997858       0.00149553       0.00001234       0.00838617
O        3.68185699       7.41508091       4.40897460      -0.00038025       0.00210633       0.00138395
C        3.22040505       5.22663535       2.90501861      -0.00081115      -0.00031039       0.00118163
C        3.01920689       4.06424029       2.18679898       0.00091547       0.00043537      -0.00250656
H        3.73654213       0.70035096       2.36106276      -0.00624671      -0.00009150       0.00268683
H        4.63894277       1.86567999       4.21070351      -0.00137078      -0.00024831       0.00025514
H        5.01585725       3.97286056       5.50642276       0.00175262       0.00506079       0.00115581
H        2.83887228       6.18095844       2.57426590       0.00572322       0.00086902       0.00138420
H        2.46825511       4.07890338       1.25619752       0.00176024      -0.00078588      -0.00395656
