53
Properties=species:S:1:pos:R:3:forces:R:3 Atoms:=T 53,=T ConfID:=T 1=T 0=T spin=1 charge=1 energy=-30761.28993663652 free_energy=-30761.28993663652 stress="0.012220124714076519 0.021379832178354263 0.0068303439766168594 0.021379832178354263 -0.002171627711504698 -0.07825511693954468 0.0068303439766168594 -0.07825511693954468 0.050592921674251556" pbc="F F F"
C        6.52233601       4.63752523       1.26789163       0.00124614       0.00202455      -0.00112667
C        5.93553701       3.26397255       1.26967038      -0.00190245       0.00429476      -0.00733536
C        6.65668915       2.24702659       0.46506325      -0.00218038       0.00529876       0.00379770
N        4.79728774       2.96844890       1.79262870       0.00388413      -0.00322885       0.00337204
C        4.38374999       1.60631571       2.21226213       0.00142814      -0.00058823      -0.00414144
C        3.59634845       1.86815466       3.51995699       0.00126104      -0.00158324      -0.00536282
C        3.40917401       3.39989415       3.60742503       0.00163368      -0.00071150       0.00053613
C        3.63579604       3.82417267       2.16848555       0.00189577      -0.00316452      -0.00158589
C        3.63871163       5.27660307       1.75236463      -0.00077371       0.00094314      -0.00035762
N        3.70644164       5.40099427       0.29913970      -0.00520926       0.00452097       0.00043385
H        4.69736153       3.74028965      -0.89017443       0.00198933      -0.00318955       0.00161153
C        2.46008192       5.03180189      -0.39682097       0.00019672      -0.00218356      -0.00294102
C        2.64143150       5.60637573      -1.80530456      -0.00078673       0.00203399       0.00027182
C        3.66201996       6.75405998      -1.63045419      -0.00301293       0.00002814       0.00198637
C        3.92710657       6.79141514      -0.12823987      -0.00068625       0.00043393      -0.00116158
H        6.03379171       5.26763492       0.52538783       0.00355076      -0.00007833      -0.00327336
H        7.57993540       4.56725535       1.02439890       0.00134112      -0.00041353       0.00122888
H        6.41921580       5.10514490       2.24378357       0.00220777       0.00200770       0.00110825
H        6.27932425       1.23701219       0.59370761      -0.00011904       0.00664037       0.00004538
H        7.73237887       2.26632805       0.63495047      -0.00510701       0.00424719      -0.00219112
H        5.25945874       0.98566377       2.36759833      -0.00276843       0.00271880      -0.00324046
H        3.76500329       1.16800594       1.42960960      -0.00066212      -0.00332919       0.00328860
H        4.13604309       1.47711638       4.37891134      -0.00702826       0.00534012       0.00009091
H        2.63357196       1.36351335       3.47908249       0.00479077      -0.00659053      -0.00046306
H        4.14862647       3.86050550       4.26434714       0.00241993       0.00073636       0.00264541
H        2.41937083       3.67829789       3.96223538       0.00003951       0.00524453      -0.00339915
H        2.83667564       3.35580684       1.58177304      -0.00603605       0.00073688       0.00080000
H        4.44824753       5.84310345       2.20934101      -0.00149645       0.00187022       0.00366516
H        2.70437858       5.70910714       2.14218822      -0.00205185       0.00367258      -0.00177894
H        1.59824535       5.49333719       0.10779531       0.00446243      -0.00109020      -0.00173833
H        2.30759069       3.95194788      -0.40691914       0.00352273      -0.00422315       0.00214265
H        3.02291288       4.84654009      -2.48646166      -0.00073978      -0.00075050       0.00666423
H        1.69148725       5.95111891      -2.20756990       0.00063918       0.00271283      -0.00030646
H        4.58094280       6.53745675      -2.17542034      -0.00238506       0.00255281       0.00846342
H        3.28772568       7.70882002      -1.99279052       0.00030588      -0.00173985      -0.00023975
H        4.93299480       7.12722917       0.13204174       0.00105675      -0.00697378       0.00436453
H        3.21480713       7.45905844       0.37814306      -0.00388329      -0.00578762      -0.00261499
C        6.35422712       2.68467279      -1.01772943       0.00438647       0.00043122       0.00442962
O        4.96473757       2.85752852      -1.19960623       0.00828458       0.00494410       0.00055667
C        6.87480333       1.61849463      -1.94651865       0.00167504       0.00115870      -0.00207575
C        6.04902014       0.58190024      -2.36501333      -0.00037349      -0.00020426      -0.00086276
C        6.55124050      -0.41899914      -3.18045248       0.00173283      -0.00030430      -0.00362863
C        7.87873756      -0.35888813      -3.55938590       0.00170466      -0.00721436      -0.00369732
N        8.41992712      -1.42793596      -4.42805153       0.00148842      -0.00232934       0.00029991
O        9.58443606      -1.34259181      -4.75216843       0.00342790       0.00211810       0.00086308
O        7.66236045      -2.31634161      -4.75270891      -0.00585914       0.00443086       0.00323390
C        8.71992678       0.66352722      -3.16440217      -0.00204301      -0.00622206      -0.00391625
C        8.20422660       1.65805073      -2.35077514       0.00218543      -0.00451126      -0.00052488
H        6.88918328       3.61778519      -1.21888863      -0.00617523       0.00208583      -0.00240705
H        5.00859879       0.56889056      -2.07133125      -0.00168116      -0.00012385       0.00426311
H        5.93365049      -1.23497741      -3.52519969       0.00311031       0.00121721      -0.00513893
H        9.74662347       0.67425961      -3.49866570      -0.00388591      -0.00492853      -0.00134535
H        8.84358719       2.47778895      -2.04382097       0.00097911      -0.00298001       0.00669140
