53
Properties=species:S:1:pos:R:3:forces:R:3 Atoms:=T 53,=T ConfID:=T 0=T 1=T spin=1 charge=1 energy=-30761.07207403047 free_energy=-30761.07207403047 stress="0.04107844829559326 -0.03349114581942558 0.0018098795553669333 -0.03349114581942558 0.028877966105937958 -0.009674287401139736 0.0018098795553669333 -0.009674287401139736 -0.03878400847315788" pbc="F F F"
C        6.53228762       4.31308371       2.06615440       0.00116200       0.00164041       0.00228040
C        6.14444077       2.94493520       1.56957370       0.00202179       0.00208952       0.00294150
C        7.10618071       2.05204184       1.33038323       0.00221760       0.00317231      -0.00078248
N        4.77202971       2.62811414       1.30860392       0.00268025      -0.00328043      -0.00042277
C        4.35326425       1.31829364       1.86177103      -0.00038286      -0.00221349      -0.00023419
C        3.91556097       1.61808069       3.31269638      -0.00581694       0.00099116       0.00141382
C        3.51751422       3.11272854       3.29836415      -0.00195649      -0.00020471      -0.00116548
C        3.66435936       3.46042447       1.81268779       0.00043793      -0.00281626       0.00012861
C        3.64775739       4.92573042       1.43153759       0.00209311      -0.00181585       0.00271358
N        3.89856268       5.09330831      -0.02812766       0.00323371      -0.00027262       0.00168846
H        4.79867148       4.64612163      -0.26717033       0.00036970      -0.00361926      -0.00548921
C        2.87615650       4.46851029      -0.92884872       0.00458374       0.00240024       0.00306191
C        3.16951702       5.12214525      -2.26588008       0.00213612       0.00469137      -0.00258462
C        3.45635962       6.58380158      -1.89453730       0.00350728       0.00485928       0.00029147
C        4.00815189       6.53480768      -0.46195508       0.00130437       0.00261666       0.00280360
H        6.35289447       5.09550757       1.32520779      -0.00104477      -0.00648052      -0.00325389
H        7.60052976       4.31873710       2.26727752      -0.00077042       0.00016530       0.00575042
H        6.02062173       4.58233551       2.99049858       0.00027495       0.00491845      -0.00193892
H        6.91311050       1.06237015       0.94229573       0.00326294       0.00344099      -0.00095083
H        8.13621887       2.30655823       1.53050599       0.00267974       0.00355012      -0.00045763
H        5.15031534       0.58834769       1.80198035       0.00489757      -0.00569089       0.00000050
H        3.51344461       0.94995247       1.26928800      -0.00188299      -0.00406104       0.00103016
H        4.74362814       1.44635300       3.99830266       0.00216266       0.00107576      -0.00352645
H        3.09518701       0.97306487       3.62202343      -0.00139852       0.00590424       0.00294894
H        4.19245217       3.70991189       3.91256803      -0.00696481      -0.00198271      -0.00066886
H        2.50343256       3.28689125       3.65700867       0.00184139      -0.00140618      -0.00102168
H        2.78470946       3.02574679       1.32368942      -0.00451073      -0.00016904      -0.00280507
H        4.37676235       5.52949472       1.96165668      -0.00148530       0.00289950       0.00031167
H        2.65753253       5.33695183       1.63530608       0.00230075      -0.00062517       0.00453096
H        1.89160524       4.74002860      -0.54439086      -0.00383365      -0.00277150       0.00140578
H        2.99325310       3.38788742      -0.90942488       0.00488557      -0.00481040      -0.00171686
H        4.04645379       4.65580369      -2.71617388       0.00266572      -0.00226980      -0.00447867
H        2.33754397       5.01773441      -2.95802756      -0.00043865      -0.00414337      -0.00099247
H        4.16269914       7.04802580      -2.57798505      -0.00007508      -0.00250106      -0.00003976
H        2.53929476       7.17048101      -1.91817294       0.00319806       0.00126143      -0.00312726
H        5.05421389       6.81959392      -0.38511772       0.00193113      -0.00153658       0.00627593
H        3.42270321       7.13232854       0.23374132      -0.00405969      -0.00032191      -0.00205380
C        7.23589170       4.00919805      -1.81753838      -0.00326933       0.00088693       0.00169349
O        6.38934577       4.64383955      -1.21820669      -0.00013762       0.00228155      -0.00201806
C        7.09992102       2.60358058      -2.22606099      -0.00119107       0.00024908      -0.00215139
C        6.00501384       1.84317103      -1.81445604       0.00264661       0.00007369       0.00568020
C        5.89679398       0.52666374      -2.21358045      -0.00650791       0.00403888      -0.00414062
C        6.89305057       0.00063448      -3.02124393      -0.00318775       0.00056098       0.00034710
N        6.77726349      -1.41743698      -3.44548252       0.00278712       0.00152292      -0.00072316
O        7.64826727      -1.85215378      -4.16388762       0.00157480      -0.00040072      -0.00260039
O        5.81830129      -2.03714737      -3.03912238      -0.00113950       0.00426680      -0.00009843
C        7.98918929       0.72636224      -3.44126093       0.00071893      -0.00288867       0.00492988
C        8.08941574       2.04654664      -3.02938702      -0.00499809      -0.00106094      -0.00406421
H        8.18145562       4.50011525      -2.09959628      -0.00508538      -0.00183513      -0.00444548
H        5.26974235       2.27583771      -1.14732150       0.00068276       0.00455602       0.00136795
H        5.07119075      -0.10058463      -1.91181128      -0.00046563      -0.00359990       0.00237709
H        8.73523031       0.26019619      -4.06716133      -0.00148154       0.00287221      -0.00014420
H        8.93860236       2.64516425      -3.33589179      -0.00217345      -0.00420728       0.00212340
