53
Properties=species:S:1:pos:R:3:forces:R:3 Atoms:=T 53,=T ConfID:=T 1=T 0=T spin=1 charge=1 energy=-30761.988040541244 free_energy=-30761.988040541244 stress="-0.012064259499311447 -0.03249465301632881 0.05103752762079239 -0.03249465301632881 -0.0021839183755218983 0.018470898270606995 0.05103752762079239 0.018470898270606995 0.014044355601072311" pbc="F F F"
C        0.60501194       2.73692380      -2.70859805       0.00164764       0.00012986       0.00192595
C        0.44868831       1.70633054      -1.64444404       0.00300911      -0.00077201       0.00188965
C        1.22814322       1.87084398      -0.38488679       0.00164995      -0.00104711       0.00089567
N       -0.34032763       0.70667077      -1.85341659       0.00129915       0.00026472       0.00074345
C       -1.12012351       0.56713393      -3.11588089       0.00222554      -0.00216937      -0.00085842
C       -2.02758151      -0.63801548      -2.89369038      -0.00121692      -0.00084080      -0.00000221
C       -2.12254948      -0.72516452      -1.37147491      -0.00620036       0.00050851       0.00051981
C       -0.70159317      -0.40148878      -0.91369546      -0.00472905       0.00117878      -0.00097608
C        0.22178544      -1.61221445      -1.07991054      -0.00439051      -0.00019925      -0.00411385
N        1.51838710      -1.48036337      -0.44368428      -0.00535631      -0.00478789      -0.00019898
H        2.50249116      -0.14888571      -1.12624593       0.00623333       0.00298336      -0.00205874
C        2.43915790      -2.56363370      -0.84219446       0.00117823       0.00045709       0.00246222
C        3.58571908      -2.45775195       0.16335256       0.00166624       0.00108940       0.00286415
C        2.95162359      -1.78847562       1.40495652      -0.00083223       0.00211189       0.00049896
C        1.48533113      -1.58771606       1.02262452      -0.00133917      -0.00224154      -0.00193397
H        1.18914128       2.31643423      -3.53189924       0.00199856       0.00371726       0.00034015
H       -0.36179136       3.04224380      -3.10836817       0.00250458       0.00307205       0.00008995
H        1.13210099       3.60742693      -2.33214954       0.00148234       0.00040612       0.00104003
H        0.94608200       1.13181563       0.35832672      -0.00474244       0.00013731      -0.00255315
H        1.02077566       2.86482155       0.01746360      -0.00367660      -0.00244670      -0.00047721
H       -0.43389200       0.46402982      -3.95493947       0.00004627      -0.00280487      -0.00408042
H       -1.70135478       1.47801951      -3.25565140      -0.00025017      -0.00427627       0.00135680
H       -1.58665851      -1.54211886      -3.31123816      -0.00099876      -0.00125931       0.00245793
H       -2.99452016      -0.49477082      -3.36916715      -0.00156250      -0.00154230       0.00169014
H       -2.81622671       0.02447180      -0.98782705       0.00041223       0.00657226       0.00250979
H       -2.44943046      -1.69916623      -1.01517952       0.00206234      -0.00282216       0.00525265
H       -0.67805631      -0.02775036       0.10640146       0.00841564       0.00150310      -0.00103868
H       -0.31606047      -2.48523961      -0.68013194       0.00563088      -0.00072941       0.00090932
H        0.38236578      -1.79911604      -2.14428784       0.00219094       0.00379112      -0.00305260
H        2.75275853      -2.43147892      -1.87837964      -0.00223129       0.00083729       0.00218923
H        1.93050469      -3.53402945      -0.75890869      -0.00066492       0.00359186       0.00550585
H        4.38880816      -1.84153087      -0.23745834      -0.00154545       0.00069554      -0.00405284
H        4.00381652      -3.43653410       0.38621344       0.00068342      -0.00118431       0.00109556
H        3.42840141      -0.83038596       1.61128648       0.00052823       0.00242951      -0.00417506
H        3.04388775      -2.39409042       2.30370017       0.00059389       0.00043062      -0.00116212
H        1.04014526      -0.70533107       1.48551099       0.00006334      -0.00391401       0.00090504
H        0.88064487      -2.45823268       1.31619270      -0.00098049      -0.00109735      -0.00206741
C        2.75344021       1.71843497      -0.67606406      -0.00085417      -0.00367815       0.00016308
O        2.95122690       0.62928478      -1.53833319       0.00096702      -0.00083240       0.00013999
C        3.38634419       2.96024844      -1.26422379      -0.00263183      -0.00221783      -0.00286487
C        3.34412677       4.15809809      -0.55350640      -0.00152648      -0.00194401      -0.00185842
C        3.89069530       5.31323667      -1.08340757      -0.00341026       0.00242710      -0.00182155
C        4.48496225       5.24466064      -2.33052804       0.00017798       0.00366042      -0.00214859
N        5.05270834       6.47781446      -2.91752825       0.00527104       0.00198117       0.00253205
O        4.96363241       7.49551932      -2.26500624      -0.00239330      -0.00766007       0.00316413
O        5.56242595       6.38684540      -4.01321523       0.00196166       0.00262848      -0.00106238
C        4.57061722       4.06669356      -3.04453268       0.00230092       0.00469798      -0.00035949
C        4.01767927       2.91645579      -2.50066667      -0.00365978       0.00242897      -0.00450680
H        3.22449598       1.53891917       0.29916539      -0.00707371      -0.00129163       0.00226301
H        2.88873588       4.19698993       0.42967428      -0.00102200      -0.00268613       0.00069009
H        3.86641878       6.25287178      -0.55190215       0.00223507       0.00266466       0.00166616
H        5.06206914       4.06050436      -4.00620309       0.00260246      -0.00144272      -0.00138288
H        4.07558525       1.97987348      -3.03580398       0.00225039      -0.00050883       0.00104586
