53
Properties=species:S:1:pos:R:3:forces:R:3 Atoms:=T 53,=T ConfID:=T 0=T 1=T spin=1 charge=1 energy=-30761.50243100984 free_energy=-30761.50243100984 stress="-0.10503408312797546 -0.06404905021190643 -0.01108439452946186 -0.06404905021190643 -0.09193792194128036 -0.027395499870181084 -0.01108439452946186 -0.027395499870181084 0.018096011132001877" pbc="F F F"
C        0.13149519       2.89864164      -1.55795732      -0.00020402      -0.00253361      -0.00064259
C       -0.18751275       1.64800546      -0.78500134       0.00287531      -0.00225890       0.00023842
C       -0.21172048       1.66841529       0.55426505      -0.00164752      -0.00090056       0.00223191
N       -0.40792479       0.52464517      -1.58676922       0.00073337      -0.00079571      -0.00010225
C       -1.07092188       0.72773465      -2.89473125      -0.00024791      -0.00028762       0.00229433
C       -1.61155400      -0.64574399      -3.26197843      -0.00254655       0.00009769      -0.00166913
C       -1.96696298      -1.23645124      -1.89920858      -0.00030869      -0.00454245      -0.00028609
C       -0.81284531      -0.75949311      -1.01069778      -0.00034934       0.00247609       0.00170516
C        0.33030478      -1.76831513      -1.10719758      -0.00043314       0.00221464      -0.00091935
N        1.57865508      -1.32970735      -0.42090106       0.00293042      -0.00070457      -0.00543397
H        1.78355354      -0.35732790      -0.70608406      -0.00111351       0.00200780      -0.00797372
C        2.79205285      -2.15750593      -0.81467510       0.00238093      -0.00392758       0.00036561
C        3.24955413      -2.84163102       0.46471030       0.00065952      -0.00393707      -0.00235083
C        2.86627308      -1.83440296       1.54464748       0.00395000      -0.00494429      -0.00301747
C        1.49608944      -1.36224234       1.08888614       0.00265984       0.00163001      -0.00286952
H        0.89790412       2.71262067      -2.31225371       0.00559596       0.00123833      -0.00601689
H       -0.74942975       3.27436279      -2.07961901      -0.00608455       0.00451330       0.00133837
H        0.47314338       3.68204272      -0.88487861      -0.00467583       0.00190314      -0.00147388
H       -0.51435386       0.83306164       1.16656007       0.00344056      -0.00310965      -0.00191476
H        0.00036186       2.59255222       1.07146244      -0.00095686      -0.00083905      -0.00057147
H       -0.37430000       1.12053924      -3.63401468      -0.00156508      -0.00232838       0.00100349
H       -1.89826568       1.43697981      -2.79397670       0.00232709       0.00036195       0.00249425
H       -0.84818128      -1.24417702      -3.76276305       0.00016427       0.00329272      -0.00282089
H       -2.46502457      -0.58047011      -3.93279691      -0.00776809      -0.00345120       0.00094244
H       -2.90114775      -0.80847605      -1.53426307      -0.00177048      -0.00176241      -0.00325498
H       -2.07635740      -2.32081796      -1.90580330      -0.00303915      -0.00798984       0.00302755
H       -1.13680498      -0.64760130       0.02395989      -0.00145165       0.00132482       0.00334039
H        0.04719546      -2.73340424      -0.68368775       0.00065263       0.00317611       0.00353723
H        0.58696616      -1.91001659      -2.15630594      -0.00042419       0.00331980      -0.00178282
H        3.53482506      -1.45780213      -1.19089296      -0.00169142      -0.00149682       0.00241819
H        2.50904260      -2.83980327      -1.61126953      -0.00351821      -0.00174460       0.00472826
H        4.31422829      -3.06209774       0.43739308      -0.00152872       0.00203392       0.00380379
H        2.71580957      -3.78205551       0.61273048      -0.00353070       0.00207857       0.00164410
H        3.57099602      -1.00123019       1.56245452      -0.00285677       0.00270979      -0.00833585
H        2.82643239      -2.26488399       2.54274345       0.00191834       0.00113989       0.00235700
H        1.21485814      -0.37635780       1.44326113      -0.00195363       0.00706558      -0.00054240
H        0.71894888      -2.07863258       1.35505330       0.00207159      -0.00402663       0.00250363
C        3.16460854       2.10655088      -0.77879738       0.00351561       0.00335410       0.00084648
O        3.00516895       0.96456248      -1.16355391       0.00228800       0.00108354      -0.00730250
C        3.78350925       3.17023676      -1.58275671       0.00025952       0.00188511       0.00192513
C        3.91609623       4.43650269      -1.02197479      -0.00144247       0.00206090       0.00239124
C        4.47103607       5.46845331      -1.76075591      -0.00334514       0.00412777       0.00198515
C        4.87376357       5.19332895      -3.05248109       0.00267648       0.00109109       0.00136210
N        5.45986321       6.29378494      -3.85851298      -0.00028935       0.00089160      -0.00070490
O        5.55683523       7.37683266      -3.32639504      -0.00060446       0.00002515       0.00555375
O        5.79633778       6.02785677      -4.99099859       0.00425661       0.00072568      -0.00356850
C        4.75539560       3.94258005      -3.63692353       0.00178784       0.00043953       0.00094521
C        4.20422582       2.92104012      -2.88899004       0.00314262      -0.00104889       0.00181711
H        2.82107637       2.40483272       0.22605605      -0.00139029      -0.00394033       0.00449738
H        3.58403250       4.61589410      -0.00653299       0.00137231       0.00237083       0.00376098
H        4.59074992       6.46354706      -1.35994618       0.00296932       0.00489759      -0.00392518
H        5.09151083       3.79589846      -4.65226327       0.00056678      -0.00601798      -0.00115593
H        4.09117401       1.92929012      -3.30532842       0.00154271      -0.00294889       0.00357714
