53
Properties=species:S:1:pos:R:3:forces:R:3 Atoms:=T 53,=T ConfID:=T 1=T 0=T spin=1 charge=1 energy=-30761.663254355026 free_energy=-30761.663254355026 stress="-0.031337156891822815 0.016636354848742485 0.026864588260650635 0.016636354848742485 -0.08852509409189224 0.04017411917448044 0.026864588260650635 0.04017411917448044 0.08075585216283798" pbc="F F F"
C       -4.82150791       0.68431514       3.95881745      -0.00217989      -0.00182087       0.00131356
C       -3.37298718       0.32325734       4.02159026       0.00164313      -0.00098329       0.00401903
C       -3.04016189      -1.09508681       4.33200638      -0.00201174      -0.00488582      -0.00590773
N       -2.48623194       1.24988141       3.89760943       0.00179541      -0.00134682      -0.00431259
C       -2.83892425       2.69356824       3.85656016       0.00123277       0.00357608       0.00140687
C       -1.61207064       3.36772329       4.44654418       0.00174234       0.00037697      -0.00155715
C       -0.47214399       2.52058606       3.90002047      -0.00134076       0.00115950      -0.00229981
C       -0.99300865       1.08020244       3.94980273       0.00306605       0.00064294       0.00025928
C       -0.38440450       0.16755948       2.87197606      -0.00023764      -0.00162493       0.00010059
N       -1.09039725       0.10213736       1.60546197      -0.00073181      -0.00183181      -0.00158629
H       -2.39638928      -1.18130733       1.90710616      -0.00194657      -0.00175028       0.00262975
C       -1.20222760       1.34478478       0.83314442       0.00477888       0.00445809       0.00435683
C       -1.66328317       0.86718083      -0.54451412       0.00129942       0.00608759       0.00363418
C       -1.08945458      -0.56295997      -0.66500205      -0.00217967       0.00264718      -0.00139222
C       -0.38542683      -0.80007042       0.66897548       0.00286537      -0.00228139      -0.00350168
H       -5.43661669      -0.20693353       3.88904531      -0.00368998      -0.00343748      -0.00322463
H       -5.03885450       1.33952531       3.11611581      -0.00540542      -0.00053638       0.00100297
H       -5.10288263       1.21012048       4.87560360       0.00066930       0.00391079       0.00014605
H       -1.98305077      -1.25033858       4.53556697      -0.00357907      -0.00145573      -0.00602823
H       -3.59558066      -1.31548721       5.25108475       0.00176210       0.00344610      -0.00522149
H       -3.74687243       2.86745319       4.42521393      -0.00234251       0.00275586      -0.00261677
H       -3.01118480       2.98780246       2.82037893      -0.00037204      -0.00371877       0.00128488
H       -1.54843708       4.41386327       4.15699519       0.00245530      -0.00160852      -0.00118000
H       -1.64836245       3.31881380       5.53615698      -0.00478557       0.00030167      -0.00331846
H       -0.24997301       2.80180358       2.87080482       0.00106226      -0.00206318      -0.00171029
H        0.44775715       2.61385448       4.47338069      -0.00550620       0.00166196      -0.00096545
H       -0.76951227       0.65279064       4.92955395       0.00348836       0.00023534       0.00132537
H       -0.31136672      -0.85621463       3.24264785      -0.00299411      -0.00128343       0.00227405
H        0.65010118       0.52014368       2.73483658      -0.00175172       0.00353011       0.00135132
H       -1.90201451       2.04285481       1.29080307      -0.00011304       0.00467736       0.00291503
H       -0.22163678       1.83911920       0.76375857       0.00924914       0.00181845      -0.00202226
H       -1.31189339       1.53181606      -1.33078955       0.00273207       0.00118309       0.00103446
H       -2.75155683       0.85012516      -0.59430498       0.00134335       0.00087168       0.00345748
H       -0.39703864      -0.66374264      -1.49766691       0.00123579      -0.00065807       0.00142872
H       -1.88599775      -1.29048343      -0.81086755      -0.00400749       0.00204882       0.00394972
H        0.67247869      -0.50914104       0.61094751       0.00599720      -0.00210707      -0.00219987
H       -0.43960086      -1.82979805       1.01913111      -0.00547661      -0.00212373       0.00096928
C       -3.50365858      -2.11799534       3.25820093      -0.00417716      -0.00309320       0.00090969
O       -2.66880899      -2.09610627       2.13759089      -0.00420331      -0.00157353       0.00319137
C       -3.48649712      -3.50068063       3.86968358       0.00256556      -0.00094883       0.00190168
C       -2.30915083      -4.23857544       3.89305937       0.00063115      -0.00231213       0.00195221
C       -2.27949691      -5.48423107       4.49769932       0.00056532      -0.00511666      -0.00466921
C       -3.44172612      -5.96994885       5.06658235      -0.00061960       0.00293791      -0.00264431
N       -3.41661892      -7.30209664       5.70936183       0.00146121       0.00113689       0.00503839
O       -2.35691467      -7.89007368       5.72688361      -0.00358307      -0.00115865       0.00146359
O       -4.45693237      -7.71282342       6.17645535       0.00600880       0.00042515       0.00246240
C       -4.62887427      -5.26399241       5.04956323      -0.00166739       0.00109825      -0.00608989
C       -4.64148982      -4.01867651       4.44303585       0.00235742       0.00474424       0.00156739
H       -4.53911140      -1.88807640       2.97758576      -0.00207530       0.00401515       0.00171956
H       -1.42138467      -3.84576511       3.41602107      -0.00126862      -0.00535125       0.00119895
H       -1.38063178      -6.08165527       4.52912774       0.00257175      -0.00382829      -0.00371774
H       -5.51486859      -5.69342828       5.49280278       0.00228604      -0.00031557       0.00246960
H       -5.56775097      -3.45665585       4.40264510       0.00138081      -0.00053190       0.00343180
