53
Properties=species:S:1:pos:R:3:forces:R:3 Atoms:=T 53,=T ConfID:=T 0=T 1=T spin=1 charge=1 energy=-30761.208471392227 free_energy=-30761.208471392227 stress="0.03725843131542206 -0.014634217135608196 -0.016350597143173218 -0.014634217135608196 0.05737562105059624 -0.04542919620871544 -0.016350597143173218 -0.04542919620871544 -0.05061442777514458" pbc="F F F"
C       -4.63631231       1.37024021       4.30918326       0.00325299      -0.00091628      -0.00050206
C       -3.30493996       0.68036692       4.43255745       0.00216420       0.00215809       0.00627628
C       -3.19353814      -0.48936029       5.07985658      -0.00304713      -0.00111840      -0.00136253
N       -2.25060046       1.32954911       3.79814030       0.00305779      -0.00579363       0.00223156
C       -2.18608991       2.79851542       3.73288772      -0.00112174      -0.00577448       0.00082052
C       -0.70674427       3.11119525       3.93782957       0.00036207       0.00024488       0.00317020
C       -0.01768297       1.90401652       3.31041112      -0.00070903      -0.00363740       0.00184567
C       -0.91648795       0.74787522       3.75683015       0.00186781      -0.00559205       0.00026725
C       -0.84458834      -0.53611939       2.93877011      -0.00070062      -0.00213242      -0.00071952
N       -1.10867459      -0.45309966       1.45962002       0.00001955      -0.00008926      -0.00081008
H       -1.51965103      -1.36798242       1.24250992       0.00081371       0.00086219      -0.00886183
C       -2.14112926       0.51202231       0.94174115      -0.00316765      -0.00132964      -0.00343813
C       -1.92779582       0.40789053      -0.55636720       0.00523800      -0.00484222      -0.00376937
C       -0.39859158       0.42107866      -0.68680099       0.00504702      -0.00142250       0.00138814
C        0.10948955      -0.27836638       0.58217684       0.00071404      -0.00086056      -0.00053422
H       -5.43632141       0.69480601       4.60200202      -0.00074901       0.00127945      -0.00315562
H       -4.81353808       1.70911806       3.28638093      -0.00358645      -0.00533780      -0.00169184
H       -4.69407676       2.24605353       4.95681521       0.00584150       0.00037785      -0.00197477
H       -2.25228325      -0.98677429       5.26555838      -0.00820359       0.00300067      -0.00111337
H       -4.07407262      -0.93712404       5.51657273       0.00310439      -0.00371552       0.00029432
H       -2.80745593       3.25692560       4.49854802       0.00314898       0.00437855      -0.00015736
H       -2.53726501       3.16516548       2.76093816      -0.00343692       0.00299167       0.00291756
H       -0.41033846       4.05849988       3.49259649      -0.00043904       0.00302162      -0.00149350
H       -0.48110476       3.15143228       5.00442924       0.00247720       0.00693969       0.00628519
H       -0.01518869       2.01099438       2.22285536       0.00675089       0.00387334       0.00233094
H        1.01339841       1.76866379       3.63418934      -0.00147520      -0.00181831       0.00071907
H       -0.60211650       0.43661677       4.76550326      -0.00321142      -0.00133475       0.00177230
H       -1.57912493      -1.24071281       3.31890344       0.00132113       0.00100539       0.00265340
H        0.14344195      -0.98512556       3.04640694      -0.00293114       0.00261782      -0.00423881
H       -3.11710415       0.20384718       1.30567062      -0.00391813      -0.00004427       0.00311399
H       -1.91069254       1.50363672       1.31537849      -0.00149864       0.00107082      -0.00260967
H       -2.40364173       1.22496575      -1.09358966       0.00168667      -0.00267555       0.00245551
H       -2.34700120      -0.52881683      -0.92951321      -0.00317079      -0.00447452       0.00009566
H       -0.03206345       1.44690289      -0.71680078      -0.00266278      -0.00309861      -0.00053995
H       -0.05195248      -0.07911681      -1.58754780       0.00051633       0.00543613       0.00117672
H        0.84076757       0.30863468       1.13038553      -0.00636703      -0.00011224      -0.00137948
H        0.52750017      -1.26634566       0.40047580      -0.00014047       0.00238574      -0.00014322
C       -3.90011617      -2.83586361       2.37163089      -0.00101840      -0.00127994      -0.00535828
O       -2.95134595      -2.49844230       1.69107151       0.00430932       0.00440588      -0.00278439
C       -3.83856476      -3.83451833       3.44875812       0.00126274       0.00098055       0.00495913
C       -2.65303170      -4.51554808       3.72234345       0.00212983       0.00010714       0.00101344
C       -2.61392480      -5.44059835       4.74668997      -0.00076565      -0.00096689      -0.00158417
C       -3.77210819      -5.66129755       5.47485564       0.00266626       0.00301087      -0.00008142
N       -3.73176813      -6.65644725       6.57590524       0.00269715       0.00887551      -0.00067878
O       -2.67268348      -7.20685195       6.78173478      -0.00424739      -0.00127313       0.00395688
O       -4.75894396      -6.84397930       7.18831664       0.00212680       0.00200015       0.00082929
C       -4.96127494      -5.00528415       5.22523950       0.00030606      -0.00674788      -0.00486464
C       -4.98712375      -4.08104667       4.19356406      -0.00135570       0.00341319       0.00530976
H       -4.89105982      -2.38448404       2.19772978      -0.00463964       0.00365571       0.00152499
H       -1.77525192      -4.32175884       3.12065158       0.00098673       0.00200912      -0.00073822
H       -1.71855203      -5.99328944       4.98904217      -0.00483583      -0.00026525      -0.00156412
H       -5.83251727      -5.22319441       5.82453167       0.00689839      -0.00353968       0.00116286
H       -5.90279254      -3.54852057       3.96722479      -0.00336841       0.00009108      -0.00242110
