53
Properties=species:S:1:pos:R:3:forces:R:3 Atoms:=T 53,=T ConfID:=T 1=T 0=T spin=1 charge=1 energy=-30761.757026289535 free_energy=-30761.757026289535 stress="0.020130470395088196 0.007978863082826138 0.011333717964589596 0.007978863082826138 0.01812528632581234 -0.017579488456249237 0.011333717964589596 -0.017579488456249237 0.051792409271001816" pbc="F F F"
C       -0.01603458      -2.29914203      -2.12209755       0.00148668      -0.00321687       0.00023835
C        0.96517514      -1.37005843      -1.48873224      -0.00009843       0.00021679      -0.00083274
C        2.30380025      -1.27934627      -2.14056912       0.00192099       0.00235957       0.00151316
N        0.60594986      -0.66643523      -0.47069953      -0.00080246      -0.00207625      -0.00135945
C       -0.80105384      -0.51961810      -0.01329466       0.00013285      -0.00310722       0.00342900
C       -0.84482509       0.86649806       0.65573130      -0.00230588      -0.00020158       0.00093368
C        0.56285388       1.45964397       0.46360678      -0.00252260      -0.00318331       0.00185781
C        1.45394307       0.23001169       0.34829682      -0.00149431      -0.00176564      -0.00272066
C        1.70989504      -0.39835584       1.72770076       0.00036069      -0.00266692      -0.00324582
N        2.30570167      -1.72345472       1.68044638       0.00246901      -0.00154129      -0.00044295
H        3.36914004      -1.83260567       0.29388827      -0.00633001      -0.00648451      -0.00189697
C        3.26711585      -1.97577253       2.77173875       0.00412471       0.00151581      -0.00029758
C        3.55088490      -3.47219813       2.66061800      -0.00127220       0.00074771       0.00211013
C        2.27903427      -4.05939927       2.00473780      -0.00084980       0.00064599       0.00026116
C        1.36752375      -2.85012036       1.78676575      -0.00024493       0.00032040      -0.00074891
H       -0.75168494      -2.69026732      -1.42421188       0.00053985       0.00074559       0.00392997
H       -0.53976502      -1.77069034      -2.92533707       0.00276475      -0.00177823      -0.00056708
H        0.52119349      -3.12555076      -2.58482266       0.00366269      -0.00180989      -0.00367580
H        2.12796785      -1.47900272      -3.19925180       0.00324462      -0.00026004       0.00404228
H        2.73902633      -0.28501479      -2.05155137      -0.00448289       0.00476877      -0.00033333
H       -1.45796086      -0.58774795      -0.87570177       0.00379133       0.00180720       0.00019448
H       -1.04483153      -1.32963607       0.67440678       0.00224504      -0.00180126       0.00749874
H       -1.61102800       1.49086867       0.20365357       0.00045636       0.00467524      -0.00268376
H       -1.09040186       0.76844102       1.71064606      -0.00176573       0.00100201       0.00434321
H        0.86334621       2.10249153       1.28890605      -0.00533562      -0.00361554       0.00265253
H        0.61776597       2.04491403      -0.45458365       0.00178454       0.00202512       0.00576518
H        2.40184063       0.39338106      -0.15702661      -0.00134690       0.00472168      -0.00276889
H        2.39686884       0.28243856       2.23352623      -0.00073502       0.00061855      -0.00674310
H        0.78514670      -0.40465475       2.32056817       0.00149885      -0.00370455      -0.00039629
H        4.15184381      -1.35295728       2.64232489       0.00857205      -0.00234690      -0.00147482
H        2.80921408      -1.73122823       3.73954720       0.00042075       0.00071596      -0.00247685
H        3.75686921      -3.91010727       3.63436669      -0.00107714       0.00238243       0.00278957
H        4.42098069      -3.64503135       2.02963229      -0.00324561      -0.00127060       0.00041514
H        2.52276236      -4.53001672       1.05238443       0.00094871      -0.00248742       0.00093602
H        1.79527830      -4.81201654       2.62344608      -0.00474719       0.00421670       0.00054113
H        0.74787900      -2.94426675       0.89330262       0.00208175       0.00057789      -0.00390670
H        0.69877437      -2.70119109       2.64745312       0.00024234       0.00532566       0.00043431
C        3.37347469      -2.28980841      -1.61584385       0.00040611       0.00297307      -0.00656379
O        3.99493334      -1.78716439      -0.47227552       0.00624549      -0.00002077      -0.00723674
C        4.39676429      -2.49894131      -2.71003428      -0.00188005      -0.00317308      -0.00188721
C        5.56575198      -1.74958654      -2.73538677      -0.00340207       0.00122815      -0.00105021
C        6.46509454      -1.89993270      -3.78028452      -0.00124184       0.00296729       0.00354561
C        6.17225305      -2.80457928      -4.78175665       0.00038465      -0.00339257       0.00578319
N        7.12070485      -2.95754265      -5.90628932       0.00353663      -0.00258028       0.00603132
O        6.83471096      -3.76075349      -6.76832866       0.00178169      -0.00037816       0.00085369
O        8.11610622      -2.26664102      -5.89204478       0.00332268       0.00011438       0.00229826
C        5.02561689      -3.57666249      -4.77284642      -0.00362917       0.00202146      -0.00038035
C        4.13740771      -3.41501744      -3.72420629      -0.00167009       0.00016526      -0.00205660
H        2.88245591      -3.25304422      -1.41547473      -0.00033905       0.00521571      -0.00072539
H        5.77779375      -1.05905169      -1.93146025      -0.00398278      -0.00156719       0.00172039
H        7.38105314      -1.32985424      -3.82707901       0.00051491      -0.00025875      -0.00203427
H        4.85053988      -4.28475317      -5.56884913      -0.00466681       0.00006255      -0.00138822
H        3.23875804      -4.02177284      -3.69270664       0.00052759       0.00055163      -0.00422397
