53
Properties=species:S:1:pos:R:3:forces:R:3 Atoms:=T 53,=T ConfID:=T 0=T 1=T spin=1 charge=1 energy=-30761.409342859817 free_energy=-30761.409342859817 stress="0.02747199311852455 0.014509417116641998 -0.03883906826376915 0.014509417116641998 0.022645490244030952 -0.014333028346300125 -0.03883906826376915 -0.014333028346300125 0.09741377085447311" pbc="F F F"
C       -1.60789767      -1.88642410      -1.09968089       0.00038503      -0.00150514      -0.00221914
C       -0.13319798      -1.68792464      -0.87795445      -0.00114682       0.00265705       0.00072695
C        0.74848003      -2.51381617      -1.46561724      -0.00275712       0.00236494       0.00115391
N        0.21193734      -0.67654408       0.01503997       0.00058619       0.00155261       0.00275153
C       -0.63495507       0.51590864       0.19014353       0.00228194       0.00101724       0.00272648
C        0.25926439       1.66130271      -0.26177770       0.00028682       0.00120152       0.00054608
C        1.61365644       1.24657995       0.30472772      -0.00101574      -0.00620501      -0.00256229
C        1.61253016      -0.29346746       0.18387694       0.00078862      -0.00127640      -0.00034090
C        2.26510964      -0.87928071       1.43083239       0.00305068       0.00254848      -0.00086136
N        2.35098378      -2.36946796       1.47202368      -0.00285377       0.00060554      -0.00180928
H        2.62703629      -2.69872682       0.53751786       0.00281683       0.00400651      -0.00117107
C        3.40656736      -2.86128405       2.42172809      -0.00212033      -0.00386983      -0.00320864
C        3.05289834      -4.32878585       2.68932790       0.00133673      -0.00627084      -0.00216116
C        1.63015774      -4.51460456       2.11774810      -0.00056435      -0.00095930       0.00082954
C        1.11557788      -3.10189290       1.89879220      -0.00239953      -0.00249501       0.00317542
H       -2.15734767      -1.86827297      -0.15708207      -0.00259111       0.00021960      -0.00333335
H       -2.02196783      -1.10717461      -1.74131685      -0.00150373      -0.00005283       0.00181652
H       -1.78256145      -2.84062623      -1.58875026       0.00162808      -0.00546595      -0.00401630
H        0.38191515      -3.30192970      -2.10584804       0.00397221      -0.00158318       0.00111025
H        1.81984917      -2.40207077      -1.39585049      -0.00582327       0.00077407      -0.00486277
H       -1.55361621       0.43695541      -0.38011026       0.00115567       0.00199023       0.00498807
H       -0.90572781       0.63276184       1.24392657       0.00076569      -0.00172140      -0.00009531
H        0.29308322       1.69529903      -1.35232827      -0.00238783      -0.00087581       0.00066939
H       -0.07323166       2.63153341       0.10219233       0.00106786       0.00399868      -0.00335941
H        1.68081205       1.54294654       1.35551076       0.00188024      -0.00245346      -0.00895473
H        2.45931281       1.69181734      -0.21640646      -0.00193109      -0.00473050       0.00807252
H        2.18805912      -0.59348346      -0.69575851      -0.00505412       0.00284799       0.00000118
H        3.28861911      -0.50744543       1.49668948       0.00428446      -0.00049910       0.00395162
H        1.72635580      -0.57269376       2.32904395       0.00041717      -0.00122602      -0.00330275
H        4.37795845      -2.70210297       1.96109111       0.00027365       0.00396549       0.00548937
H        3.32813241      -2.24787818       3.31859957       0.00216969       0.00179767      -0.00438749
H        3.08555721      -4.53062179       3.75777132       0.00023829       0.00366098      -0.00626360
H        3.76325582      -4.99862876       2.21010674      -0.00665075      -0.00178418      -0.00122419
H        1.66030819      -5.04210648       1.16345218       0.00653008       0.00044848       0.00304315
H        0.97805731      -5.07764792       2.78088951       0.00177696       0.00246744       0.00086558
H        0.35346980      -3.00774327       1.13418039       0.00380018       0.00522657       0.00159998
H        0.78010106      -2.63388636       2.82498051       0.00060510       0.00560009       0.00226191
C        4.60252158      -3.34006650      -1.64646552      -0.00152095      -0.00089253       0.00449081
O        4.11659617      -2.74496622      -0.70306678      -0.00102086      -0.00332857      -0.00588582
C        5.20086111      -2.69158289      -2.82015854       0.00246285      -0.00692210      -0.00191725
C        5.28193158      -1.30135374      -2.90457464       0.00182087      -0.00396438       0.00202155
C        5.84314460      -0.71409860      -4.02049641      -0.00459826      -0.00147591      -0.00046009
C        6.30405447      -1.54014191      -5.03352689       0.00483911       0.00301961       0.00517819
N        6.90547405      -0.91052968      -6.23671278      -0.00806196       0.00072431      -0.00119448
O        7.24855815      -1.64881053      -7.13231588       0.00543745       0.00233815       0.00698630
O        7.00727212       0.29625420      -6.23374054      -0.00578360       0.00025765      -0.00013820
C        6.23414209      -2.91772403      -4.98063817       0.00483709       0.00030471      -0.00116478
C        5.67637599      -3.49527337      -3.85176083      -0.00270401      -0.00102183      -0.00499570
H        4.60589107      -4.44305488      -1.66094027      -0.00427189       0.00349602       0.00086911
H        4.90894620      -0.69593844      -2.08965896       0.00143002      -0.00082108       0.00109938
H        5.93147134       0.35681585      -4.12473681       0.00204295       0.00061321       0.00033530
H        6.61047750      -3.50692627      -5.80315313      -0.00064320      -0.00016614      -0.00058817
H        5.60734783      -4.57348200      -3.77481130       0.00243554       0.00186159       0.00371803
