53
Properties=species:S:1:pos:R:3:forces:R:3 Atoms:=T 53,=T ConfID:=T 1=T 0=T spin=1 charge=1 energy=-30761.990308855606 free_energy=-30761.990308855606 stress="0.03713111951947212 0.01575321890413761 -0.04153396934270859 0.01575321890413761 0.024246037006378174 0.005519933067262173 -0.04153396934270859 0.005519933067262173 -0.05504222959280014" pbc="F F F"
C       -1.38470873       1.15558473       5.88224043       0.00226952       0.00145867      -0.00036107
C       -0.91687023       1.20937596       4.46909191       0.00451899       0.00064033      -0.00020424
C        0.19671926       2.14060933       4.13034838       0.00275199      -0.00020961      -0.00084750
N       -1.48100879       0.44683520       3.59441226       0.00175708       0.00077616       0.00051052
C       -2.59891444      -0.47101779       3.95247566       0.00232935      -0.00226934      -0.00039290
C       -3.07800201      -1.05397671       2.62703134      -0.00111145      -0.00070566      -0.00123184
C       -2.60849214      -0.02241420       1.60288008      -0.00588817       0.00111675      -0.00253632
C       -1.22904928       0.38180860       2.11982712      -0.00543287       0.00084429      -0.00007856
C       -0.17607828      -0.67326744       1.76854002      -0.00624796      -0.00260389       0.00065844
N        1.19614439      -0.26353049       1.99804351      -0.00446320      -0.00340928      -0.00549139
H        1.54109178       0.07024388       3.72170069       0.00424051      -0.00001438       0.00615073
C        2.13612382      -1.39557555       1.87493783       0.00187398       0.00224907      -0.00106919
C        3.50722782      -0.72437212       1.80769786       0.00221329       0.00244291      -0.00008839
C        3.22094592       0.68338642       1.23527068      -0.00066821       0.00157521       0.00080637
C        1.70703994       0.70854638       1.01968544      -0.00150889      -0.00332201      -0.00045382
H       -2.47234262       1.20602216       5.93810809       0.00113644       0.00196977       0.00329375
H       -1.07074761       0.20898777       6.33058804       0.00124212       0.00211495       0.00336716
H       -0.95545643       1.96393560       6.46474880       0.00155410       0.00150139       0.00003854
H       -0.07269925       3.13890905       4.48168030      -0.00282735      -0.00207521      -0.00281678
H        0.36591553       2.18524057       3.05900716      -0.00570342      -0.00131569      -0.00077443
H       -2.24259792      -1.21280744       4.66549820      -0.00078006      -0.00441601       0.00024884
H       -3.37975272       0.11923450       4.43095895       0.00162036      -0.00226189      -0.00392096
H       -2.62353695      -2.02606338       2.44114592       0.00034228       0.00084559      -0.00285255
H       -4.15647628      -1.18971631       2.62399503      -0.00068238       0.00038888      -0.00275293
H       -3.27184133       0.84379074       1.60069472       0.00013529       0.00634491       0.00302659
H       -2.56178754      -0.41206518       0.58870912       0.00433448       0.00135991      -0.00443826
H       -0.93373489       1.36501850       1.76331454       0.00704892      -0.00049447       0.00530616
H       -0.36420963      -1.57715298       2.35276424       0.00036878       0.00028489       0.00546694
H       -0.32644317      -0.93965440       0.71131265       0.00590944      -0.00051981       0.00135619
H        2.02270351      -2.07486891       2.72073299      -0.00120964       0.00303068      -0.00270778
H        1.92616842      -1.95628654       0.95362663       0.00042100       0.00694482      -0.00091519
H        3.94465836      -0.65284433       2.80220046      -0.00340783      -0.00236501       0.00245369
H        4.19463953      -1.29463308       1.18741447       0.00158667       0.00037073      -0.00073620
H        3.75148586       0.87537430       0.30535084       0.00018543      -0.00057988       0.00075452
H        3.52160309       1.45559827       1.94293333      -0.00188720      -0.00138245       0.00497423
H        1.27173780       1.69865342       1.16480565       0.00137746      -0.00239067      -0.00335438
H        1.45054125       0.37855851       0.00246924      -0.00131838      -0.00167466       0.00023778
C        1.51368974       1.66528356       4.81916628      -0.00013963      -0.00244036      -0.00301886
O        1.62678622       0.27328237       4.68536839       0.00129279      -0.00029039      -0.00032364
C        1.60622402       2.04944761       6.27955157      -0.00270674      -0.00368133      -0.00082824
C        1.55522047       3.39363406       6.64318756      -0.00159530      -0.00297838      -0.00115398
C        1.61046565       3.76755459       7.97399207      -0.00438392       0.00106879       0.00094387
C        1.72369829       2.77395092       8.92957210      -0.00150129       0.00142257       0.00405169
N        1.75942675       3.15979067      10.35706327       0.00541392       0.00251507       0.00192281
O        1.69042217       4.34227417      10.61451910       0.00075880      -0.00259910      -0.00830095
O        1.84889219       2.26644276      11.17106464       0.00097571       0.00042973       0.00330415
C        1.80745699       1.43664934       8.59892959       0.00070029       0.00295440       0.00474431
C        1.75125593       1.07669071       7.26030558      -0.00554139      -0.00118168       0.00327208
H        2.32731869       2.17860390       4.29061284      -0.00597604       0.00110239      -0.00493054
H        1.48076723       4.16474439       5.88459868      -0.00020993      -0.00107169      -0.00275021
H        1.57033433       4.80268630       8.27874078       0.00207528       0.00299174       0.00172576
H        1.91350196       0.69951643       9.38108037       0.00226752      -0.00241218       0.00101074
H        1.82012945       0.03751227       6.97341422       0.00248943      -0.00007944      -0.00029474
