53
Properties=species:S:1:pos:R:3:forces:R:3 Atoms:=T 53,=T ConfID:=T 0=T 1=T spin=1 charge=1 energy=-30761.509345625473 free_energy=-30761.509345625473 stress="-0.07357339560985565 -0.025536678731441498 -0.061442818492650986 -0.025536678731441498 -0.04788675904273987 -0.055403027683496475 -0.061442818492650986 -0.055403027683496475 -0.04225726053118706" pbc="F F F"
C       -1.40724859       2.19225573       5.07068857      -0.00046599      -0.00148758      -0.00367779
C       -1.14762893       1.87255493       3.62381229       0.00373276      -0.00325835      -0.00339834
C       -0.67282993       2.81341179       2.79674849       0.00149099       0.00126160      -0.00204747
N       -1.41479037       0.54485022       3.27843481      -0.00097369      -0.00317143      -0.00045589
C       -2.55116631      -0.12788055       3.94657668      -0.00167118      -0.00199946      -0.00215658
C       -2.88323813      -1.30066555       3.03646831      -0.00280985      -0.00189700      -0.00093085
C       -2.56272331      -0.74422122       1.65083480       0.00090544      -0.00195868      -0.00157057
C       -1.28936079       0.07244051       1.89786569      -0.00090916       0.00220456       0.00074846
C       -0.07962572      -0.85020377       1.76005230      -0.00167162       0.00044748       0.00138981
N        1.21240089      -0.20872446       2.13530962       0.00023562      -0.00395173       0.00152623
H        1.08851977       0.26880576       3.04422432      -0.00320817      -0.00427915       0.00135388
C        2.33762927      -1.21352312       2.32736531       0.00266628      -0.00195519      -0.00146260
C        3.36775790      -0.87927506       1.25925747       0.00095793      -0.00264725      -0.00109873
C        3.21129369       0.62951130       1.09567146       0.00210413      -0.00321821       0.00148927
C        1.70399845       0.81460478       1.13608610       0.00005239       0.00115081       0.00295315
H       -2.47637015       2.20547760       5.28499039      -0.00713597       0.00255176      -0.00022830
H       -0.95527933       1.44644165       5.72698780       0.00062475      -0.00461483       0.00594852
H       -1.01094967       3.17492394       5.31734112      -0.00415564       0.00200363       0.00222285
H       -0.48066319       3.80451684       3.18023157       0.00032266       0.00200182       0.00205262
H       -0.54484750       2.67587745       1.73407930       0.00224724      -0.00413616      -0.00082165
H       -2.28804417      -0.43721725       4.95717228      -0.00015875       0.00133513      -0.00296150
H       -3.40933096       0.54850727       4.00818244       0.00391313       0.00174948      -0.00021900
H       -2.25587320      -2.16328831       3.26859155      -0.00230996      -0.00076645       0.00331725
H       -3.91939820      -1.61487335       3.13839446      -0.00473764       0.00206539      -0.00286297
H       -3.35842695      -0.07612820       1.31962387      -0.00129821      -0.00302866      -0.00025442
H       -2.43249202      -1.51231977       0.88848938      -0.00030164      -0.00102014      -0.00495193
H       -1.21603689       0.90355648       1.19649041      -0.00052886       0.00190121      -0.00292612
H       -0.20854961      -1.70086196       2.42812096      -0.00167722       0.00071145       0.00295584
H        0.02476434      -1.22011215       0.73867978       0.00179544       0.00377108       0.00055454
H        2.72531469      -1.05512724       3.33102144       0.00088257       0.00072303      -0.00213279
H        1.92868028      -2.21751531       2.25743708      -0.00055611       0.00247314      -0.00368032
H        4.36737855      -1.17903308       1.56534427       0.00062106       0.00137270      -0.00229523
H        3.13546194      -1.39106518       0.32373115      -0.00297150       0.00214815      -0.00192274
H        3.63365241       1.00996859       0.16827245       0.00192393       0.00183289       0.00169321
H        3.68342396       1.15848733       1.92531125      -0.00468290      -0.00321291       0.00665665
H        1.37579771       1.79782810       1.45591447      -0.00284443       0.00602791       0.00535226
H        1.24792775       0.57476256       0.17562076       0.00288000      -0.00291917      -0.00189338
C        1.79050906       1.82190962       5.29848518       0.00108622       0.00124580       0.00069177
O        1.73859656       0.75905190       4.71103309       0.00137608      -0.00082459       0.00509002
C        1.82668023       1.95459611       6.76201547       0.00129166       0.00466261      -0.00170753
C        1.89590060       3.22954230       7.31456819      -0.00136439       0.00352463       0.00073334
C        1.90530822       3.39000023       8.69039905      -0.00215127       0.00203706       0.00234556
C        1.83953971       2.25441488       9.47321109       0.00130658      -0.00095665       0.00044525
N        1.83802734       2.41389778      10.94927252      -0.00040548       0.00204108       0.00011971
O        1.91466185       3.54168886      11.38249216       0.00179395       0.00583959      -0.00027324
O        1.75808085       1.40375967      11.61232470       0.00209350      -0.00308117       0.00331322
C        1.77076742       0.97270339       8.95146270       0.00345435      -0.00163833      -0.00179011
C        1.76615411       0.82548564       7.57858388       0.00091372       0.00206884      -0.00383430
H        1.79703866       2.76822044       4.73142779       0.00256029      -0.00203843      -0.00321861
H        1.94121314       4.09794605       6.66846090       0.00076645       0.00188482      -0.00205538
H        1.95907999       4.36217773       9.15643323       0.00093528       0.00086047       0.00477685
H        1.72161173       0.12721132       9.62084614       0.00176860      -0.00428750       0.00021160
H        1.71329176      -0.15581872       7.12696633       0.00228670       0.00045096      -0.00111348
