53
Properties=species:S:1:pos:R:3:forces:R:3 Atoms:=T 53,=T ConfID:=T 1=T 0=T spin=1 charge=1 energy=-30761.812339399887 free_energy=-30761.812339399887 stress="0.06338152289390564 -0.027032187208533287 0.045523952692747116 -0.027032187208533287 0.019569741562008858 -0.02131209708750248 0.045523952692747116 -0.02131209708750248 0.000107235049654264" pbc="F F F"
C       -0.93929366      -3.20580539       1.10365154       0.00266187      -0.00232370      -0.00182404
C       -0.40075291      -3.55322840      -0.23841428      -0.00007729       0.00363540      -0.00347336
C        0.42410716      -4.79176363      -0.37400370      -0.00366411       0.00438637      -0.00188509
N       -0.65322566      -2.78922689      -1.24728373      -0.00033571      -0.00012451      -0.00640668
C       -1.52754424      -1.58452840      -1.16354306       0.00218890      -0.00315300       0.00587583
C       -1.57679394      -1.05912061      -2.59149367       0.00373926       0.00142021       0.00849905
C       -1.37690381      -2.32300970      -3.42472514       0.00161017       0.00078732       0.00424739
C       -0.26938081      -3.04948574      -2.66570840       0.00436964      -0.00203537      -0.00705501
C        1.12791396      -2.51184189      -3.07018723       0.00163237       0.00039153      -0.00168110
N        2.09865513      -2.29589724      -2.00911060      -0.00256215      -0.00577703       0.00173175
H        2.26563614      -3.17662878      -0.38590407       0.00462664      -0.00417418       0.00114768
C        3.48177107      -2.32586694      -2.52966407      -0.00432357      -0.00112621      -0.00153500
C        4.31300826      -1.73324081      -1.39674290      -0.00127777       0.00211089      -0.00366409
C        3.34655136      -0.76445023      -0.67814643      -0.00268071       0.00203787      -0.00284493
C        2.00151665      -0.96226259      -1.38579989      -0.00442484      -0.00153445      -0.00314147
H       -1.90261394      -2.70477231       1.05111614       0.00535878      -0.00328160       0.00394899
H       -0.22391065      -2.53534099       1.59069669      -0.00088590      -0.00404240       0.00051198
H       -1.01819024      -4.09519581       1.72323158       0.00086901       0.00067938       0.00320568
H       -0.21630000      -5.64462193      -0.13283964       0.00184998       0.00013217      -0.00197164
H        0.78433745      -4.91403660      -1.39076672      -0.00017007      -0.00293495       0.00015402
H       -1.12178157      -0.88182096      -0.43864531       0.00552214       0.00217498       0.00062985
H       -2.51322333      -1.90602024      -0.82598255      -0.00297813      -0.00350254      -0.00469200
H       -2.51538859      -0.55115524      -2.79852766       0.00262719      -0.00340893       0.00035445
H       -0.76607951      -0.35046232      -2.76465390      -0.00063440       0.00617870      -0.00279761
H       -2.28707779      -2.92495834      -3.43653169      -0.00126453       0.00291296      -0.00292276
H       -1.08948058      -2.12302478      -4.45525047      -0.00078759      -0.00189970       0.00464442
H       -0.31463768      -4.12220751      -2.82506423      -0.00437066      -0.00319149       0.00068364
H        0.99579321      -1.58340409      -3.64406058      -0.00034628       0.00188203       0.00775042
H        1.53891680      -3.24407689      -3.76711951       0.00009662       0.00205322       0.00155336
H        3.55446434      -1.70385032      -3.43271791      -0.00391651       0.00195738       0.00042957
H        3.76240314      -3.34499886      -2.79578571       0.00117581      -0.00069697      -0.00128242
H        4.64254017      -2.51652304      -0.71536653      -0.00530343       0.00083825      -0.00160341
H        5.20045154      -1.23282930      -1.77661786       0.00536883      -0.00139420      -0.00022187
H        3.26898916      -1.01180482       0.37876725       0.00152119       0.00311811      -0.00011504
H        3.66919420       0.27170717      -0.75157657       0.00034373       0.00329048       0.00288856
H        1.15506399      -0.91071119      -0.69944745       0.00135921      -0.00093825       0.00619892
H        1.85574700      -0.20061783      -2.16519853      -0.00103730      -0.00077937      -0.00725627
C        1.65618599      -4.75824227       0.57153434      -0.00294714      -0.00241453      -0.00019569
O        2.21421723      -3.46826219       0.55223338       0.00515622      -0.00330796       0.00203148
C        1.36647766      -5.17187160       1.99819197       0.00134404      -0.00217710       0.00072854
C        0.79475474      -6.41714393       2.25244707      -0.00203133       0.00141085      -0.00045023
C        0.53745995      -6.82552668       3.54902328       0.00003019       0.00030691      -0.00198173
C        0.86974148      -5.97036481       4.58390922      -0.00209713       0.00167852      -0.00406038
N        0.59455080      -6.39436571       5.97366092      -0.00557919       0.00551755      -0.00099805
O        0.09110642      -7.48567669       6.13130742      -0.00102805       0.00099597       0.00168054
O        0.88753714      -5.61956475       6.85820041      -0.00122644      -0.00509006       0.00365559
C        1.45661651      -4.74046624       4.36605977      -0.00189952       0.00139404      -0.00178956
C        1.70642875      -4.34360594       3.06034663      -0.00133010       0.00173991      -0.00076120
H        2.36249390      -5.49115782       0.16206674       0.00103385       0.00086931      -0.00226902
H        0.55872430      -7.09094595       1.43643234       0.00387134       0.00292024       0.00165326
H        0.09621458      -7.78659905       3.76798558       0.00346014       0.00190776       0.00150664
H        1.71396470      -4.11482748       5.20800425      -0.00330291      -0.00132138       0.00068740
H        2.17582369      -3.39064106       2.86404836       0.00066571       0.00190169       0.00248004
