53
Properties=species:S:1:pos:R:3:forces:R:3 Atoms:=T 53,=T ConfID:=T 0=T 1=T spin=1 charge=1 energy=-30761.520183180404 free_energy=-30761.520183180404 stress="0.1050197184085846 0.009169976226985455 -0.057350076735019684 0.009169976226985455 -0.06312991678714752 -0.022125985473394394 -0.057350076735019684 -0.022125985473394394 -0.00670828390866518" pbc="F F F"
C       -2.05710415      -1.26365000       0.56973748       0.00221177       0.00095699      -0.00225349
C       -1.17434558      -2.23036384      -0.16942981       0.00083698       0.00316806      -0.00165503
C       -0.57887434      -3.24329531       0.48072626      -0.00665463       0.00269429      -0.00216733
N       -0.98775983      -1.94056604      -1.51645151      -0.00136555      -0.00344927      -0.00001967
C       -2.02812776      -1.20068675      -2.25690737       0.00309379      -0.00091503       0.00196329
C       -1.62748186      -1.38063419      -3.71099396       0.00137597      -0.00263229      -0.00216275
C       -1.07739034      -2.80469374      -3.71968752      -0.00083931      -0.00388905      -0.00066332
C       -0.30498149      -2.88839510      -2.39551206      -0.00236659      -0.00315485       0.00118914
C        1.15680239      -2.53440467      -2.66719683      -0.00366677      -0.00001075       0.00221839
N        2.03639407      -2.44508648      -1.46466139      -0.00234446      -0.00007681       0.00013056
H        1.81778460      -3.23232698      -0.83815967       0.00008001      -0.00108656      -0.00277368
C        3.49226973      -2.57484844      -1.81317070      -0.00404812       0.00047442      -0.00134428
C        4.24142304      -2.05693004      -0.58302573       0.00088537      -0.00104501      -0.00096078
C        3.18374852      -1.29092400       0.24346601       0.00073564       0.00195333      -0.00054912
C        1.97456905      -1.17494519      -0.67261754       0.00229059       0.00160385      -0.00295690
H       -3.08262861      -1.30057568       0.20037601       0.00337525      -0.00046079      -0.00104878
H       -1.70428334      -0.23763905       0.44640896       0.00426167      -0.00105551       0.00291766
H       -2.07145599      -1.50345634       1.62919354       0.00388533       0.00052777      -0.00210186
H       -0.76829819      -3.37355803       1.53586781       0.00387810       0.00122658      -0.00386049
H        0.02652700      -3.99705872      -0.00178428      -0.00749194       0.00237793       0.00232937
H       -2.06101748      -0.15634026      -1.95137898       0.00123344       0.00059764       0.00284133
H       -3.01572246      -1.64064060      -2.08218538       0.00135370       0.00507023       0.00329534
H       -2.46641405      -1.24560344      -4.38978920      -0.00094305       0.00412746      -0.00298609
H       -0.85594231      -0.65916418      -3.98819673       0.00587704      -0.00202231       0.00008437
H       -1.89892028      -3.52136385      -3.70170734       0.00157834      -0.00508478      -0.00650732
H       -0.45629244      -3.03280258      -4.58597262      -0.00535969       0.00349361      -0.00297540
H       -0.35568693      -3.89908791      -1.98322197      -0.00171905      -0.00260018       0.00357427
H        1.23764037      -1.57649842      -3.18377165       0.00218100      -0.00119362       0.00143507
H        1.58677386      -3.30913612      -3.30322906      -0.00201578       0.00111239       0.00320866
H        3.65578758      -1.94939059      -2.69047281       0.00073437       0.00188547       0.00620418
H        3.69224498      -3.61180335      -2.06759631       0.00321323      -0.00477290       0.00354822
H        4.66779294      -2.87806056      -0.01061596      -0.00949814       0.00173358      -0.00172728
H        5.06224807      -1.41216982      -0.88897933      -0.00627896      -0.00225181       0.00248570
H        2.91398793      -1.85269813       1.13819260       0.00119851      -0.00060546       0.00681903
H        3.52923984      -0.31230969       0.56698319      -0.00464490       0.00596637       0.00368275
H        1.02077015      -1.11033004      -0.16265192       0.00095989       0.00628746       0.00073044
H        2.07265617      -0.35712359      -1.38723837      -0.00296668       0.00169112      -0.00482138
C        2.25984808      -6.06795243       0.22705804       0.00220550       0.00069834      -0.00267995
O        2.24928845      -5.06775687      -0.46442869       0.00149269      -0.00004224      -0.00064885
C        2.03242177      -6.08588766       1.67998091       0.00310524      -0.00080251      -0.00185825
C        2.04078620      -7.31152814       2.33814919       0.00244674       0.00003854       0.00010971
C        1.82289814      -7.36725496       3.70552849      -0.00221959      -0.00338807      -0.00100000
C        1.60552524      -6.17982027       4.37449724       0.00579098      -0.00192116       0.00205084
N        1.37435798      -6.22766901       5.84038939      -0.00293779       0.00264678       0.00079574
O        1.34373912      -7.32065877       6.35874416       0.00329178       0.00551370       0.00184478
O        1.23359750      -5.16772022       6.40983155      -0.00657014      -0.00021729      -0.00091197
C        1.59374568      -4.94388746       3.74748041       0.00185018      -0.00428014      -0.00020512
C        1.80903575      -4.90303778       2.38493459       0.00222898      -0.00134626       0.00062553
H        2.44897706      -7.04893986      -0.23812881      -0.00195613      -0.00212676      -0.00101777
H        2.21654868      -8.22375404       1.78141851       0.00024010      -0.00000933      -0.00050691
H        1.81888244      -8.29930176       4.25009535       0.00144900      -0.00207821       0.00107029
H        1.41703475      -4.05241212       4.33080338       0.00368458      -0.00257392      -0.00217904
H        1.79416373      -3.96020868       1.85533281       0.00286160      -0.00075314      -0.00061219
