53
Properties=species:S:1:pos:R:3:forces:R:3 Atoms:=T 53,=T ConfID:=T 1=T 0=T spin=1 charge=1 energy=-30761.81271800859 free_energy=-30761.81271800859 stress="0.034940898418426514 0.027558458968997 0.0029818599577993155 0.027558458968997 0.051853857934474945 0.02793273702263832 0.0029818599577993155 0.02793273702263832 0.06329087913036346" pbc="F F F"
C       -4.77523576       1.01551388      -1.65806599       0.00280640      -0.00064489       0.00361527
C       -3.62562985       0.14666157      -1.29051252       0.00141401      -0.00644086      -0.00178867
C       -2.96842505       0.36035830       0.03432730      -0.00103583       0.00099914      -0.00269338
N       -3.22331130      -0.76414672      -2.11131017       0.00288350      -0.00692186      -0.00163053
C       -3.89622140      -1.05046492      -3.41035355       0.00022653       0.00112261      -0.00178447
C       -3.12100413      -2.23017447      -3.98107264      -0.00021893       0.00641072      -0.00061027
C       -2.60612426      -2.93662398      -2.72882285      -0.00165820       0.00371305      -0.00286714
C       -2.15367286      -1.77169083      -1.85206258       0.00392846      -0.00638196       0.00203445
C       -0.72283118      -1.31192864      -2.23286158      -0.00043563       0.00163015      -0.00114201
N       -0.46911964       0.11881722      -2.28948049      -0.00331738       0.00524993       0.00279794
H       -1.28645361       1.49283210      -1.33928745       0.00396889       0.00206478       0.00305266
C        0.96750807       0.41832540      -2.11390426       0.00027987       0.00123578      -0.00209774
C        1.09215703       1.87307964      -2.55116103       0.00078895      -0.00028441      -0.00190593
C       -0.01208637       2.04555204      -3.61845373      -0.00205270       0.00126602      -0.00095295
C       -0.78213866       0.71942252      -3.60069144       0.00154978      -0.00179642      -0.00027248
H       -5.25249582       1.41152252      -0.76570242      -0.00310443       0.00404681       0.00028679
H       -5.50927085       0.50055589      -2.27266187       0.00242580       0.00592089       0.00226613
H       -4.38565826       1.86918748      -2.22190031      -0.00262638       0.00053201       0.00250294
H       -3.70575257       0.13670774       0.81025641       0.00227766      -0.00006850      -0.00055986
H       -2.12319440      -0.30822029       0.16571920      -0.00329252       0.00165058       0.00255192
H       -3.88609240      -0.16047216      -4.03635986       0.00007734       0.00210442      -0.00041656
H       -4.93176570      -1.32098357      -3.20197400       0.00335067      -0.00408085       0.00334655
H       -2.29088028      -1.87962120      -4.59551799      -0.00118797      -0.00058352      -0.00258829
H       -3.75274536      -2.86124691      -4.60127845       0.00232192       0.00370662       0.00455329
H       -3.40970045      -3.49028165      -2.24018882       0.00222756       0.00013505      -0.00375869
H       -1.78927234      -3.62845402      -2.92596573      -0.00431133       0.00434842       0.00332483
H       -2.19346755      -2.02727497      -0.79797122      -0.00453465      -0.00224296       0.00475963
H       -0.44788698      -1.77325801      -3.19207408      -0.00080153       0.00110289      -0.00222630
H       -0.06033469      -1.74836795      -1.48359920       0.00039028      -0.00050214      -0.00382877
H        1.56775776      -0.23459210      -2.76309820      -0.00418017      -0.00702311       0.00441836
H        1.26701880       0.24015855      -1.08093136      -0.00097176       0.00100479      -0.00422135
H        0.91358806       2.54062807      -1.70902274      -0.00265516      -0.00729253       0.00054171
H        2.08580248       2.08875833      -2.93664848      -0.00020444       0.00087905      -0.00267323
H       -0.66575616       2.87801037      -3.36605385       0.00096474       0.00526237       0.00045205
H        0.39669522       2.23672290      -4.60826224      -0.00019974      -0.00059396      -0.00040092
H       -1.85750742       0.85948005      -3.72146645       0.00369105      -0.00114134       0.00253860
H       -0.43174649       0.05514453      -4.40367459       0.00043703      -0.00444819       0.00307044
C       -2.45459630       1.81874522       0.18292437      -0.00158432      -0.00080109       0.00199663
O       -1.86706916       2.22325296      -1.02858888       0.00278854       0.00175003       0.00416098
C       -3.51022627       2.81935764       0.60166473       0.00016849      -0.00130530       0.00235969
C       -4.23416362       2.60878716       1.77384474      -0.00043031      -0.00018923      -0.00184352
C       -5.19189180       3.51810001       2.18647050       0.00223458      -0.00122973      -0.00009175
C       -5.40541358       4.64299433       1.41071168       0.00270551      -0.00460287      -0.00471089
N       -6.43015932       5.61943148       1.83898376      -0.00409889      -0.00464880      -0.00286316
O       -6.60048023       6.59011489       1.13374962      -0.00326681      -0.00002909       0.00581466
O       -7.03151523       5.37885320       2.86359249      -0.00126336       0.00164086      -0.00257934
C       -4.69023423       4.89055284       0.25668772       0.00111168      -0.00351262      -0.00436723
C       -3.73476878       3.96865624      -0.14569706       0.00256636      -0.00346114      -0.00030910
H       -1.70552134       1.78763476       0.98392363       0.00009919      -0.00013091       0.00032296
H       -4.04465758       1.73579910       2.38833744       0.00403165       0.00375141      -0.00345175
H       -5.76261845       3.37459492       3.09204148       0.00199113       0.00345507      -0.00299208
H       -4.88080416       5.79182573      -0.30704359      -0.00446697       0.00136053       0.00170058
H       -3.15356124       4.14521953      -1.03906079      -0.00180782       0.00401443      -0.00084077
