53
Properties=species:S:1:pos:R:3:forces:R:3 Atoms:=T 53,=T ConfID:=T 0=T 1=T spin=1 charge=1 energy=-30761.507979010177 free_energy=-30761.507979010177 stress="0.11660225689411163 -0.022219305858016014 -0.03747162967920303 -0.022219305858016014 0.05592668429017067 -0.0061187404207885265 -0.03747162967920303 -0.0061187404207885265 -0.023329349234700203" pbc="F F F"
C       -4.58797130      -0.29563993      -0.09099580       0.00474415      -0.00200345       0.00026346
C       -3.36982169      -1.05846600      -0.53113045       0.00385737       0.00021259      -0.00828846
C       -2.58895312      -1.68271942       0.35901149      -0.00055254       0.00157025       0.00142189
N       -3.12247489      -1.03753808      -1.90866221      -0.00077226       0.00345538      -0.00876416
C       -4.25037469      -0.88471175      -2.83968783      -0.00187171      -0.00020427      -0.00495605
C       -3.59328662      -1.01590383      -4.20077697      -0.00088153       0.00165914      -0.00028498
C       -2.54387827      -2.10168323      -3.95976760      -0.00145547       0.00304022       0.00004069
C       -2.12999944      -1.94688792      -2.48081821      -0.00288203      -0.00036875      -0.00293964
C       -0.68959771      -1.45256282      -2.24578864      -0.00157879       0.00186930       0.00089377
N       -0.58066053       0.02998187      -2.19259049      -0.00388305       0.00397660      -0.00103503
H       -1.38972666       0.37953264      -1.65795516      -0.00812125       0.00103463       0.00015153
C        0.66626817       0.48913846      -1.47675849      -0.00019858       0.00348993      -0.00037397
C        1.04169133       1.79028100      -2.15913177       0.00020904       0.00104917      -0.00200521
C        0.71448043       1.48997208      -3.62041998      -0.00489697       0.00090644      -0.00016479
C       -0.61187651       0.74404924      -3.53047098      -0.00248887      -0.00044708      -0.00149679
H       -4.61803424      -0.23413806       0.99420017       0.00356914       0.00538470       0.00373647
H       -5.49996544      -0.79609291      -0.42097691       0.00072082       0.00264918      -0.00370925
H       -4.60600959       0.71318477      -0.50643082      -0.00117488      -0.00229428       0.00358593
H       -2.83314589      -1.62750491       1.40902412       0.00275608       0.00533356       0.00523438
H       -1.74915027      -2.30502261       0.09115223      -0.00033508      -0.00068217       0.00087313
H       -4.74315775       0.07482016      -2.69780616       0.00447591      -0.00205563      -0.00280944
H       -4.99333069      -1.67794697      -2.69186088      -0.00019565       0.00251412       0.00174922
H       -3.13120248      -0.06848125      -4.48181437       0.00461104      -0.00138632      -0.00217065
H       -4.30245607      -1.28247062      -4.98141919       0.00313363      -0.00516986       0.00295424
H       -2.99419614      -3.08399221      -4.09998194       0.00213647       0.00114456       0.00077885
H       -1.69527572      -2.04633261      -4.64189594      -0.00027429      -0.00099270       0.00151451
H       -2.18351901      -2.92438629      -1.98686963       0.00010496      -0.00240614      -0.00019518
H       -0.01959933      -1.81288137      -3.02695878       0.00021736      -0.00069060       0.00264928
H       -0.31144681      -1.81041424      -1.29151473      -0.00502606      -0.00510748       0.00162216
H        1.42978847      -0.27217118      -1.63529517       0.00231461       0.00005004      -0.00024676
H        0.44418028       0.56044249      -0.41490175      -0.00265405       0.00311172       0.00296627
H        0.42505933       2.60860571      -1.78613219       0.00109688      -0.00141688       0.00080465
H        2.08730224       2.04119347      -1.99620628       0.00001736       0.00108691       0.00247648
H        0.62688789       2.38289589      -4.23519786      -0.00225459      -0.00504893      -0.00369634
H        1.48484063       0.85350572      -4.05977804      -0.00251662       0.00520169       0.00355693
H       -1.45672724       1.42864917      -3.49883703      -0.00253004      -0.00479652      -0.00121798
H       -0.76883786       0.01434752      -4.31932893       0.00257414      -0.00397610       0.00382816
C       -2.53704421       2.38419984       0.14319724      -0.00355931      -0.00088705      -0.00002057
O       -2.12293451       2.01411384      -0.93761742       0.00442378      -0.00427821      -0.00645706
C       -3.56131682       3.42414962       0.32388542      -0.00107623      -0.00149550       0.00326989
C       -3.92118464       3.79191762       1.61656650       0.00044291      -0.00117848       0.00402115
C       -4.88298999       4.76866381       1.81827600       0.00254388       0.00055080      -0.00004894
C       -5.46349230       5.34283217       0.70506220       0.00605499       0.00442333      -0.00122404
N       -6.49194559       6.39434457       0.90881817      -0.00199592      -0.00189633       0.00054102
O       -7.00887441       6.85838002      -0.08323183      -0.00037886      -0.00181015       0.00131469
O       -6.73736189       6.71214067       2.05080477      -0.00434913      -0.00694594      -0.00278678
C       -5.13150529       4.99134939      -0.59368347       0.00328130       0.00351437      -0.00214876
C       -4.16553071       4.02300521      -0.78181468       0.00498797       0.00459812       0.00448889
H       -2.15053486       1.92826626       1.07126527      -0.00171289       0.00057860      -0.00136362
H       -3.44560538       3.31848443       2.46683821       0.00111621      -0.00469856       0.00160012
H       -5.18345245       5.08674986       2.80521051       0.00098143      -0.00271881      -0.00103301
H       -5.62636671       5.47849953      -1.42022284       0.00269771       0.00608319      -0.00339118
H       -3.86861831       3.72381654      -1.77811821      -0.00345243      -0.00353224       0.00649068
