53
Properties=species:S:1:pos:R:3:forces:R:3 Atoms:=T 53,=T ConfID:=T 1=T 0=T spin=1 charge=1 energy=-30761.800183390213 free_energy=-30761.800183390213 stress="0.01531792152673006 0.010702208615839481 0.018381737172603607 0.010702208615839481 -0.017762843519449234 -0.013364413753151894 0.018381737172603607 -0.013364413753151894 0.044004522264003754" pbc="F F F"
C       -5.40348675       2.65509304      -1.01127550      -0.00215186       0.00297272       0.00104741
C       -4.36158808       2.31839692      -2.02165987       0.00165521      -0.00102381       0.00642590
C       -4.81930347       1.57679503      -3.22676758       0.00191055      -0.00045632       0.00151242
N       -3.11253131       2.56039673      -1.83140620       0.00078244       0.00395024       0.00412836
C       -2.06361972       2.41428387      -2.88248331       0.00177488      -0.00116114       0.00155202
C       -0.76547328       2.33599242      -2.10412297       0.00028363       0.00174263       0.00462713
C       -1.03272601       3.19279096      -0.86924978      -0.00047064       0.00306714       0.00378327
C       -2.50429822       2.95149587      -0.51918810       0.00196783       0.00046682       0.00465654
C       -2.77011490       1.87008146       0.54388645      -0.00222066      -0.00249340      -0.00245413
N       -2.58285982       0.49399952       0.09677320      -0.00183780      -0.00121391      -0.00396224
H       -3.11091818      -0.01750878      -1.71409575       0.00377001       0.00041369       0.00645936
C       -3.54179431      -0.43732274       0.72913894      -0.00068807      -0.00000584      -0.00238075
C       -2.97452462      -1.82872846       0.43093531       0.00204198       0.00157270       0.00077742
C       -1.47806904      -1.57867743       0.13410431       0.00258188       0.00265560       0.00079711
C       -1.28221593      -0.10154148       0.45357691      -0.00015973       0.00268154      -0.00079397
H       -5.82975769       1.73519629      -0.60198322       0.00257190       0.00682809       0.00272324
H       -6.21361984       3.17056393      -1.52892063      -0.00125481      -0.00306266      -0.00166369
H       -5.05010741       3.27988832      -0.19909915      -0.00218983       0.00074294       0.00061893
H       -4.23837452       1.79930776      -4.11844016      -0.00011939       0.00135973      -0.00025315
H       -5.86488222       1.80302490      -3.43066770       0.00222496      -0.00433921      -0.00339328
H       -2.11483749       3.31007529      -3.50454127      -0.00078633      -0.00266987      -0.00085054
H       -2.25316445       1.52985907      -3.47775318       0.00142649      -0.00028895      -0.00411506
H       -0.56692752       1.29980061      -1.83769345      -0.00016175      -0.00147162      -0.00791431
H        0.07421489       2.69849101      -2.69248440      -0.00278098       0.00138919       0.00130187
H       -0.88251789       4.24642381      -1.10708463       0.00245782       0.00238741      -0.00235863
H       -0.38388304       2.95123515      -0.02930195      -0.00126283      -0.00339198       0.00073000
H       -2.97058099       3.87732927      -0.18045857       0.00210837       0.00025757      -0.00020134
H       -2.13262823       2.10327214       1.40640798      -0.00368860      -0.00281435      -0.00429242
H       -3.79588278       1.97106058       0.89647731      -0.00067791       0.00021091      -0.00045714
H       -3.58450985      -0.25590490       1.81128816       0.00313840      -0.00266305      -0.00368350
H       -4.54591841      -0.28243703       0.32728776      -0.00339934      -0.00045120       0.00397043
H       -3.46845706      -2.27782457      -0.42915352       0.00318560      -0.00093036       0.00276520
H       -3.12150604      -2.49380717       1.27895191      -0.00136273      -0.00262517      -0.00326106
H       -0.81883217      -2.21026151       0.72503296       0.00194953       0.00102519      -0.00013646
H       -1.26212352      -1.76676877      -0.91758986      -0.00125887      -0.00234445       0.00116435
H       -0.45981714       0.35618960      -0.09228274      -0.00221941       0.00317331      -0.00358871
H       -1.09420035       0.04569464       1.52709163      -0.00285060      -0.00066162       0.00025743
C       -4.68845688       0.04452594      -2.91155027      -0.00371337       0.00254769      -0.00397657
O       -3.36030561      -0.30513912      -2.61990793      -0.00503705      -0.00031648      -0.00067347
C       -5.17006531      -0.72553689      -4.11754314       0.00039739      -0.00192676      -0.00079926
C       -6.52339318      -1.00979327      -4.25797889       0.00040681       0.00297835       0.00031226
C       -6.98976277      -1.67124795      -5.38202798       0.00014892      -0.00130033       0.00428019
C       -6.07600150      -2.03689316      -6.35134231       0.00017238       0.00143327       0.00274439
N       -6.56235220      -2.74482748      -7.55618806      -0.00151425       0.00228441      -0.00030369
O       -7.75057378      -2.97368581      -7.62323628       0.00100805       0.00144772      -0.00120418
O       -5.73909973      -3.04463470      -8.39337759      -0.00324227      -0.00186024      -0.00035695
C       -4.72454758      -1.77380165      -6.23578496       0.00156048      -0.00313203       0.00089346
C       -4.27241974      -1.11203294      -5.10601469       0.00028203      -0.00136815      -0.00026883
H       -5.34747097      -0.18503654      -2.06466454       0.00252187      -0.00453628      -0.00324120
H       -7.22315821      -0.72808686      -3.47931365       0.00002507       0.00315275      -0.00238172
H       -8.03432678      -1.91200907      -5.51156741       0.00004248       0.00207760      -0.00052368
H       -4.05108391      -2.08887216      -7.01882996       0.00302671      -0.00396703       0.00155075
H       -3.21650482      -0.91489669      -4.98267263      -0.00037521      -0.00034300       0.00041037
