53
Properties=species:S:1:pos:R:3:forces:R:3 Atoms:=T 53,=T ConfID:=T 0=T 1=T spin=1 charge=1 energy=-30761.523399447036 free_energy=-30761.523399447036 stress="-0.03787301853299141 -0.02728838473558426 -0.020043736323714256 -0.02728838473558426 -0.033640291541814804 0.0013862957712262869 -0.020043736323714256 0.0013862957712262869 -0.053730227053165436" pbc="F F F"
C       -5.53554023       2.57562949      -0.44734425       0.00126475      -0.00134676      -0.00063846
C       -4.92771435       2.38864811      -1.80846627      -0.00581496      -0.00086233      -0.00057349
C       -5.69452437       2.42729600      -2.90406936      -0.00219313      -0.00384386      -0.00152450
N       -3.55684207       2.09216202      -1.85801856      -0.00639306       0.00062652       0.00330240
C       -2.93981776       2.03241597      -3.18327324      -0.00449120       0.00161092       0.00051774
C       -1.46407318       1.85718914      -2.88721044       0.00206940       0.00387837       0.00041469
C       -1.27149798       2.73415639      -1.64994181      -0.00062912       0.00267176       0.00732910
C       -2.61086616       2.66537912      -0.88656734      -0.00377929       0.00189287       0.00626992
C       -2.56491404       1.84794808       0.41333268       0.00168953      -0.00361589       0.00013844
N       -2.56978249       0.38152704       0.15406904       0.00241130      -0.00173001      -0.00102382
H       -3.10569417       0.24267813      -0.72111134       0.00007652      -0.00303938      -0.00173235
C       -3.25665864      -0.42768688       1.21750905      -0.00162433       0.00215322       0.00135890
C       -2.77354323      -1.86620169       1.00173975      -0.00126279       0.00334721       0.00090210
C       -1.59151347      -1.75735709       0.01483482      -0.00000252       0.00054761      -0.00021565
C       -1.23443840      -0.28051262       0.01665468       0.00478181      -0.00295933       0.00021634
H       -5.45164459       1.66292107       0.14923284      -0.00283575       0.00014549       0.00115184
H       -6.59157445       2.81196823      -0.54630683       0.00446235       0.00090184      -0.00021877
H       -5.06778447       3.39046189       0.10848946       0.00273695      -0.00229902      -0.00014210
H       -5.31030199       2.30800827      -3.90573041      -0.00054063      -0.00267466       0.00193318
H       -6.75340866       2.61531032      -2.80244391       0.00378485      -0.00367541       0.00141815
H       -3.12429751       2.96124678      -3.73732844      -0.00033621       0.00364039      -0.00557799
H       -3.36124331       1.20857546      -3.75878331      -0.00425280      -0.00365275      -0.00162899
H       -1.25132656       0.80517767      -2.68413199      -0.00005332      -0.00122675      -0.00099160
H       -0.83172606       2.16178175      -3.71793280       0.00387903       0.00338518      -0.00507184
H       -1.09525279       3.76331910      -1.96118675       0.00225803       0.00159436      -0.00195897
H       -0.42380016       2.44320661      -1.02938401       0.00702068      -0.00234591       0.00083567
H       -2.90696045       3.67504618      -0.58764051       0.00204435       0.00752693      -0.00103593
H       -1.67755401       2.09211536       0.99767823      -0.00203203       0.00135218      -0.00063263
H       -3.43856240       2.05858965       1.02436946       0.00280648       0.00266000      -0.00349102
H       -2.93615238      -0.02035053       2.17591967       0.00117138      -0.00389771       0.00125412
H       -4.32919568      -0.29414109       1.10708612      -0.00131169      -0.00150377       0.00074119
H       -3.56638790      -2.48401095       0.58951377      -0.00619684      -0.00517642       0.00343341
H       -2.46681527      -2.30252761       1.94964016      -0.00053975      -0.00223777       0.00167461
H       -0.74185424      -2.37238617       0.30077423       0.00120943       0.00366131      -0.00419158
H       -1.90510904      -2.05896169      -0.98426918       0.00441673      -0.00050298       0.00038969
H       -0.72811306       0.07215287      -0.87591810      -0.00111364      -0.00164724       0.00411381
H       -0.65275290       0.00173275       0.89557988      -0.00266346       0.00030604      -0.00052891
C       -5.37431153      -0.77698048      -2.36606580      -0.00208579      -0.00039911      -0.00120128
O       -4.44745633      -0.84986307      -1.58363299       0.00172175       0.00493732       0.00178770
C       -5.25147015      -1.01720466      -3.81524922       0.00000105      -0.00068304      -0.00172830
C       -6.36697490      -0.83290450      -4.62462682      -0.00055720       0.00010476      -0.00183654
C       -6.27099582      -1.02601101      -5.99316636       0.00001645      -0.00237990      -0.00188830
C       -5.04728595      -1.40401691      -6.51018267       0.00076181       0.00040402       0.00042867
N       -4.93057956      -1.60385084      -7.97602918       0.00109094       0.00242604       0.00281981
O       -5.93422235      -1.45260515      -8.63542647      -0.00410966       0.00108194      -0.00464859
O       -3.83765670      -1.90026962      -8.40654871       0.00221781      -0.00219958       0.00148090
C       -3.92179547      -1.60557211      -5.72795689      -0.00140928      -0.00622372       0.00169824
C       -4.03228855      -1.40950169      -4.36522385       0.00188395       0.00296141       0.00063985
H       -6.38613694      -0.52953099      -2.00765113      -0.00040650       0.00658808      -0.00174870
H       -7.30930613      -0.52958517      -4.18499061       0.00139987       0.00128171       0.00069358
H       -7.11398653      -0.88997793      -6.65382927       0.00003822      -0.00055675      -0.00070105
H       -2.99634393      -1.91022814      -6.19346806      -0.00234678       0.00052559      -0.00085209
H       -3.18131651      -1.56041449      -3.71406782       0.00176649      -0.00153308      -0.00116027
