53
Properties=species:S:1:pos:R:3:forces:R:3 Atoms:=T 53,=T ConfID:=T 1=T 0=T spin=1 charge=1 energy=-30761.76276740892 free_energy=-30761.76276740892 stress="0.042771097272634506 0.0013379635056480765 0.020101653411984444 0.0013379635056480765 0.036086469888687134 -0.01974196918308735 0.020101653411984444 -0.01974196918308735 0.011528071947395802" pbc="F F F"
C        3.67688312      -2.06936848       1.96591193      -0.00196636       0.00256530       0.00175262
C        2.75615128      -3.23950558       1.86798457      -0.00074064      -0.00009415      -0.00100678
C        2.21707328      -3.76641745       3.15513519      -0.00193530      -0.00299484      -0.00085275
N        2.51667765      -3.76243627       0.71474074       0.00116660       0.00063426      -0.00014945
C        3.28582338      -3.44755501      -0.51782742      -0.00239231       0.00253125      -0.00229522
C        3.19174084      -4.72889003      -1.36648638       0.00085608       0.00034236      -0.00188157
C        2.41203471      -5.73676859      -0.50277068       0.00044492       0.00322447      -0.00250921
C        1.56335170      -4.85066987       0.39939336       0.00233108       0.00057268       0.00026532
C        0.35089310      -4.28896971      -0.36090857       0.00144321       0.00201353       0.00356268
N       -0.34626709      -3.21624502       0.32904639      -0.00147735       0.00074192       0.00170466
H       -0.25927680      -3.49792717       2.05386166       0.00347831       0.00751631      -0.00046396
C        0.03413221      -1.85159970      -0.06145983       0.00096031      -0.00049464      -0.00023389
C       -1.03596014      -0.97981616       0.59631027       0.00024260      -0.00034378      -0.00080862
C       -2.27376773      -1.90142057       0.70012658      -0.00092150      -0.00138210      -0.00189864
C       -1.80759259      -3.23624096       0.12087101      -0.00197731      -0.00278294       0.00174238
H        3.68095031      -1.44840776       1.07391389      -0.00268936      -0.00079316      -0.00253589
H        3.39715982      -1.46542712       2.82777558      -0.00033697       0.00090015       0.00625506
H        4.69453423      -2.43015286       2.14701245      -0.00151724      -0.00000829       0.00237267
H        2.06784143      -4.84494318       3.12834677       0.00411851      -0.00318397      -0.00333213
H        2.98011770      -3.54835386       3.90458365      -0.00558105      -0.00049723      -0.00068217
H        4.30714873      -3.20409822      -0.23955742      -0.00198933      -0.00253237       0.00176778
H        2.84289280      -2.58116907      -1.00899577      -0.00613332       0.00143445      -0.00364646
H        2.67285131      -4.52560417      -2.30037380      -0.00043410      -0.00035104      -0.00382816
H        4.18127912      -5.09879042      -1.62190582       0.00160539      -0.00374648       0.00160066
H        1.80200008      -6.41478931      -1.09671523       0.00077510       0.00607040      -0.00399129
H        3.09005404      -6.33939094       0.10195876      -0.00403356      -0.00104130      -0.00356779
H        1.22985392      -5.31831549       1.32157488       0.00360697      -0.00317345      -0.00035552
H        0.64722294      -3.97803329      -1.37192136      -0.00187938       0.00286985       0.00311350
H       -0.32997670      -5.13294118      -0.48423195       0.00522914      -0.00002639       0.00378419
H        0.00467936      -1.75232886      -1.15672964       0.00033732      -0.00559635      -0.00190100
H        1.04358011      -1.60337948       0.27094646       0.00135151      -0.00173755       0.00375963
H       -0.71137844      -0.66403814       1.58781621      -0.00157799       0.00231916       0.00095534
H       -1.22710794      -0.07986105       0.01610679       0.00376898      -0.00234080      -0.00541529
H       -2.57413829      -2.02362246       1.73922027       0.00201308       0.00238053      -0.00019067
H       -3.12888097      -1.51113792       0.15341285      -0.00086410      -0.00164923      -0.00291037
H       -2.03238505      -3.30052456      -0.95219100       0.00114108      -0.00070650       0.00164236
H       -2.24428935      -4.10303449       0.61611140      -0.00552772       0.00017393       0.00618695
C        0.86678556      -3.13516559       3.62203762       0.00568024      -0.00306844       0.00507922
O       -0.20650538      -3.77650140       3.00266473       0.00034239      -0.00047945       0.00789737
C        0.76789978      -3.29513899       5.12285994       0.00161889       0.00416230       0.00240364
C        1.40428479      -2.37770901       5.95271820       0.00225205       0.00081704       0.00073950
C        1.38462471      -2.53745154       7.32699477       0.00326689      -0.00271597      -0.00212649
C        0.71766600      -3.63081483       7.84733384      -0.00629560       0.00293408      -0.00348803
N        0.70371728      -3.82034537       9.31414327      -0.00497236      -0.00211139      -0.00211908
O        1.28523144      -2.99542846       9.98603220      -0.00296335       0.00050793       0.00039809
O        0.11644595      -4.78923622       9.74401165      -0.00298087       0.00160106      -0.00031681
C        0.06239910      -4.54835558       7.04988814      -0.00012742      -0.00236983      -0.00295101
C        0.08927822      -4.37401201       5.67431026       0.00349380       0.00043794      -0.00110650
H        0.87986662      -2.06006879       3.39123884       0.00111206      -0.00542373      -0.00024727
H        1.91191043      -1.51907078       5.52631983       0.00227363      -0.00057996       0.00338508
H        1.86580464      -1.83701681       7.99297301       0.00393633       0.00199494      -0.00172432
H       -0.45597441      -5.37836348       7.50663649       0.00132039       0.00118263       0.00122456
H       -0.42838115      -5.06888613       5.02842819       0.00114797       0.00229664      -0.00305701
