53
Properties=species:S:1:pos:R:3:forces:R:3 Atoms:=T 53,=T ConfID:=T 0=T 1=T spin=1 charge=1 energy=-30761.398366545272 free_energy=-30761.398366545272 stress="0.05113669112324715 0.020830582827329636 0.03991580381989479 0.020830582827329636 0.018247229978442192 0.05955129861831665 0.03991580381989479 0.05955129861831665 -0.028168749064207077" pbc="F F F"
C        4.43148798      -1.96088696       0.36558652      -0.00753458       0.00000339       0.00036048
C        3.16522892      -2.55085210       0.92236158      -0.00754069       0.00192639      -0.00368676
C        2.65617856      -2.07072767       2.06862536       0.00085600      -0.00118679      -0.00222601
N        2.55047440      -3.53424966       0.14695017      -0.00085084      -0.00035312      -0.00270693
C        3.31883487      -4.35595113      -0.80225256       0.00076274       0.00548292       0.00160376
C        3.30303272      -5.74137487      -0.17221425       0.00043983       0.00483614      -0.00230278
C        1.86617586      -5.83224749       0.33318993      -0.00015651      -0.00849770      -0.00041568
C        1.50996927      -4.37965179       0.73452699       0.00161234      -0.00377314      -0.00026286
C        0.10758993      -4.07289660       0.22459015       0.00142462       0.00123179       0.00140819
N       -0.44084780      -2.74186516       0.61439221       0.00154914       0.00127041      -0.00296988
H       -0.25431703      -2.60129631       1.61816965      -0.00421822      -0.00675295      -0.00278271
C        0.07303976      -1.55333529      -0.13962780       0.00180943       0.00022241       0.00043649
C       -0.90227819      -0.46433001       0.27123692       0.00357134       0.00217236       0.00127904
C       -2.26722053      -1.17714954       0.34778930       0.00858202       0.00420973      -0.00080731
C       -1.93519590      -2.67158108       0.45332265       0.00507480       0.00263609       0.00528461
H        4.31137608      -1.67162503      -0.67948455      -0.00143118       0.00174618      -0.00530895
H        4.70817953      -1.08077772       0.93898326      -0.00135439       0.00252477      -0.00021594
H        5.25952850      -2.66913439       0.42316484       0.00200402       0.00013384      -0.00064203
H        1.76685086      -2.45803673       2.54222764       0.00265937      -0.00314068      -0.00138356
H        3.17692743      -1.27932009       2.58582332      -0.00175114       0.00139898      -0.00338865
H        4.31281363      -3.95693975      -0.96439757       0.00250309      -0.00151676       0.00212939
H        2.80881941      -4.37232372      -1.77074504       0.00482467      -0.00060147       0.00599642
H        3.55701446      -6.53610648      -0.87135928       0.00031181       0.00635237       0.00054013
H        4.00873532      -5.77483869       0.66010016       0.00022024       0.00006741      -0.00504373
H        1.21298415      -6.17140426      -0.47553859      -0.00478481      -0.00206129      -0.00081635
H        1.73736054      -6.52109697       1.16569133       0.00524818      -0.00259932       0.00770099
H        1.52718524      -4.27997761       1.82189916       0.00013095      -0.00313980       0.00084024
H        0.07451360      -4.12107070      -0.86544541      -0.00009269       0.00025379       0.00273883
H       -0.58205910      -4.81884283       0.62304332       0.00163276       0.00367104       0.00442769
H        0.00243283      -1.79668667      -1.20042917      -0.00310752      -0.00811876      -0.00342966
H        1.10672470      -1.36860947       0.13384564       0.00072904      -0.00678098       0.00089458
H       -0.61583155      -0.06934492       1.24737691       0.00100738      -0.00043255      -0.00060664
H       -0.89611743       0.36542250      -0.43115256      -0.00427171      -0.00074297      -0.00094187
H       -2.84964089      -0.83734208       1.20070535       0.00259931       0.00256728       0.00007442
H       -2.85956631      -0.99269314      -0.54579159      -0.00202824       0.00293199      -0.00032087
H       -2.17807727      -3.21410377      -0.45920090      -0.00291740       0.00295918       0.00151531
H       -2.38973870      -3.18102808       1.29976641       0.00073538       0.00395371      -0.00321985
C       -0.32065758      -2.53227865       4.54357366       0.00616192       0.00245568      -0.00484329
O       -0.46484584      -2.97567461       3.41912814      -0.00254455       0.00133244       0.00264613
C        0.13536109      -3.32387530       5.69154409      -0.00205351       0.00350919       0.00012709
C        0.30777994      -2.68394032       6.91509186      -0.00597256      -0.00400480       0.00331104
C        0.75102107      -3.39990168       8.01501066      -0.00110368      -0.00154832       0.00386263
C        1.00836277      -4.74587581       7.84803882       0.00111495      -0.00208290      -0.00040407
N        1.48170788      -5.52439777       9.02085656       0.00411827      -0.00141578       0.00314383
O        1.57678710      -4.93398366      10.07310467       0.00389641      -0.00063436      -0.00771844
O        1.73803338      -6.69376714       8.83756048      -0.00087326       0.00242534       0.00435324
C        0.84691735      -5.40975427       6.64227572      -0.00480162       0.00107858      -0.00012776
C        0.40428469      -4.68597577       5.55384245      -0.00162872       0.00290319      -0.00176397
H       -0.52465365      -1.46797079       4.74813717      -0.00015876      -0.00368682      -0.00102128
H        0.09617056      -1.62570407       7.00811697      -0.00044738      -0.00331531      -0.00000557
H        0.89748495      -2.94012092       8.98053516      -0.00368700      -0.00185090       0.00538016
H        1.06599119      -6.46515216       6.58188348      -0.00168000       0.00001989      -0.00040391
H        0.25864793      -5.16309146       4.59424654       0.00141102       0.00196097      -0.00028740
