53
Properties=species:S:1:pos:R:3:forces:R:3 Atoms:=T 53,=T ConfID:=T 1=T 0=T spin=1 charge=1 energy=-30761.81187591417 free_energy=-30761.81187591417 stress="-0.054742682725191116 0.04464158043265343 0.04959062859416008 0.04464158043265343 0.0021318052895367146 0.000497600354719907 0.04959062859416008 0.000497600354719907 0.07144828885793686" pbc="F F F"
C        0.40066131       3.72679272       2.41435308       0.00171841       0.00169529       0.00028774
C       -0.21702144       2.65265040       3.23211333       0.00024110       0.00171552      -0.00312296
C       -0.26372636       2.86942706       4.70910553      -0.00181857       0.00175476      -0.00618387
N       -0.60329708       1.53875924       2.71409397      -0.00176564       0.00004860       0.00052888
C       -1.38451459       0.49821553       3.42333913       0.00267250       0.00073677       0.00002729
C       -2.10769873      -0.20615083       2.28692057      -0.00172572       0.00315692       0.00304241
C       -1.05375322      -0.23480158       1.18388538      -0.00282678      -0.00357251       0.00378221
C       -0.30576872       1.09825895       1.31527577      -0.00462918      -0.00122058       0.00542261
C        1.20828954       1.02363105       1.04129506      -0.00235205      -0.00108031       0.00273489
N        2.03238924       0.66497303       2.18715563       0.00364246       0.00337909       0.00310995
H        2.05296483       1.66347528       3.82432374       0.00070084      -0.00473734      -0.00318129
C        2.00998049      -0.75598343       2.57024626      -0.00037663       0.00178931       0.00006868
C        3.19737941      -0.88744796       3.52145167       0.00039195      -0.00052024      -0.00146889
C        4.20065481       0.18041956       3.03029476       0.00123847      -0.00307991       0.00139625
C        3.46322036       0.91001614       1.90500450       0.00715903      -0.00016652       0.00267002
H       -0.02950727       4.67933992       2.72527637      -0.00387809       0.00150524       0.00040741
H        1.46484349       3.77092912       2.66274443       0.00047685       0.00153703       0.00012577
H        0.27068408       3.60394273       1.34468251       0.00269437      -0.00170280       0.00255299
H       -1.21919479       2.58582686       5.15057440       0.00333449      -0.00056317      -0.00133919
H       -0.08825666       3.92225499       4.92254904       0.00021591      -0.00083204       0.00129825
H       -2.04309723       0.95975913       4.15317919       0.00019980       0.00085394      -0.00500409
H       -0.69863937      -0.17501396       3.93826362       0.00130515       0.00129454       0.00336956
H       -2.97849877       0.37623930       1.98268280      -0.00154215       0.00365561       0.00050585
H       -2.44817600      -1.19733211       2.57714607      -0.00250951       0.00420341      -0.00147917
H       -0.36852556      -1.06829107       1.33364499       0.00493112      -0.00058424       0.00048043
H       -1.48262527      -0.33923868       0.18981884      -0.00210409      -0.00370409       0.00152082
H       -0.74922808       1.83108428       0.63928555       0.00036164      -0.00179789       0.00150935
H        1.34601071       0.31212794       0.21334310       0.00062833       0.00364735      -0.00313741
H        1.56432000       1.98747267       0.67879006      -0.00050808      -0.00130130       0.00117309
H        1.06554984      -1.03353267       3.03762672      -0.00181704      -0.00207587       0.00250208
H        2.14364071      -1.38794105       1.67950740       0.00147733       0.00089218      -0.00247548
H        3.60774809      -1.89460322       3.50971637       0.00423208       0.00212508      -0.00587031
H        2.88632649      -0.67353994       4.54440601       0.00256145      -0.00351503      -0.00044219
H        4.45528596       0.86642101       3.83601211       0.00219780      -0.00012886      -0.00334828
H        5.12689754      -0.25845973       2.66699699      -0.00104790      -0.00092331      -0.00434638
H        3.72665526       0.48722602       0.92620205       0.00025165      -0.00178832       0.00169171
H        3.66376812       1.98184377       1.87383027      -0.00241195       0.00166330       0.00086424
C        0.88847414       2.03428228       5.35059651      -0.00554019       0.00196621       0.00050752
O        2.08230948       2.22366473       4.63092954      -0.00298717       0.00482064       0.00228794
C        1.06523815       2.45126472       6.78923341       0.00107828       0.00045410       0.00127614
C        0.18970810       1.96502773       7.75495924       0.00122845      -0.00478469       0.00104236
C        0.31443564       2.35299663       9.07749812      -0.00237112       0.00081043      -0.00290050
C        1.32745040       3.23396503       9.40665831      -0.00458562      -0.00189151       0.00227048
N        1.47607208       3.64894147      10.81896178      -0.00457769      -0.00365671       0.00098935
O        0.69841632       3.17716705      11.62044102       0.00014737       0.00641175      -0.00253778
O        2.36446339       4.43133061      11.07736767      -0.00200093       0.00113791       0.00078549
C        2.21126712       3.73274944       8.47017399       0.00053148      -0.00262300       0.00180694
C        2.07530113       3.33435418       7.14927458       0.00249085       0.00173558       0.00207179
H        0.59991696       0.97654960       5.33183820       0.00166430      -0.00366420       0.00194861
H       -0.58864258       1.26129911       7.48062748       0.00050961      -0.00067172       0.00109662
H       -0.34501981       1.98186889       9.84774098       0.00133445       0.00161292      -0.00094112
H        2.99005335       4.41322336       8.78110330      -0.00044837      -0.00147757      -0.00205919
H        2.76647500       3.69536479       6.40124409       0.00220712      -0.00253953      -0.00731782
