53
Properties=species:S:1:pos:R:3:forces:R:3 Atoms:=T 53,=T ConfID:=T 0=T 1=T spin=1 charge=1 energy=-30761.45387325151 free_energy=-30761.45387325151 stress="-0.008554068394005299 0.0038093910552561283 -0.019918005913496017 0.0038093910552561283 0.010151015594601631 0.0276198610663414 -0.019918005913496017 0.0276198610663414 0.05552522465586662" pbc="F F F"
C        0.11941112       3.36723151       3.66325508       0.00163656      -0.00229344       0.00050753
C       -0.67626687       2.11403402       3.90012915       0.00038770      -0.00245076      -0.00323356
C       -1.35088560       1.96377757       5.04837118       0.00194258       0.00146743      -0.00035341
N       -0.60210916       1.11814284       2.91690711      -0.00527850       0.00161136      -0.00177779
C       -1.64063738       0.07338256       2.88963506      -0.00001193      -0.00108437      -0.00225471
C       -2.05634161      -0.02855024       1.42650297      -0.00410775       0.00021853       0.00260505
C       -0.77705013       0.32107449       0.68064271       0.00033493      -0.00072143       0.00173482
C       -0.13999961       1.41034954       1.55197365      -0.00050890       0.00127590       0.00255608
C        1.38974315       1.47492161       1.42448322      -0.00167476      -0.00053705      -0.00026413
N        2.10588857       0.57297338       2.36539627       0.00066883       0.00673730       0.00087669
H        1.76051362       0.75669283       3.32284527       0.00058586      -0.00056985       0.00240682
C        1.97819407      -0.90063923       2.14571584      -0.00381327       0.00709222      -0.00221594
C        3.05649408      -1.47334053       3.05207567      -0.00551702      -0.00184187      -0.00043071
C        4.20340003      -0.44371028       2.99715015      -0.00244183      -0.00115092       0.00242171
C        3.58745671       0.82277992       2.39172415       0.00185449       0.00146682      -0.00040817
H       -0.09350915       4.08555206       4.45060469      -0.00043702       0.00284285      -0.00330378
H        1.19335511       3.16093176       3.69182230       0.00342530      -0.00182154       0.00400714
H       -0.11063542       3.84047381       2.70795871      -0.00435482       0.00006449       0.00364613
H       -1.90500163       1.07329309       5.30474256      -0.00241696       0.00166632       0.00202753
H       -1.36847246       2.77679416       5.75848556      -0.00103468       0.00042736       0.00380675
H       -2.47789555       0.36056041       3.52195107       0.00802375       0.00213921      -0.00288364
H       -1.25031536      -0.87639784       3.26957315       0.00018465       0.00347663       0.00056671
H       -2.82919899       0.71148306       1.21333564      -0.00097376       0.00404286       0.00019404
H       -2.45059770      -1.00903292       1.16774147      -0.00069315       0.00051063      -0.00310916
H       -0.12917487      -0.55311125       0.60599977       0.00550891      -0.00592677       0.00133925
H       -0.94902578       0.68167156      -0.33225996       0.00101033       0.00090215      -0.00347982
H       -0.51628494       2.38030626       1.21158210      -0.00034507       0.00208413       0.00358678
H        1.69854773       1.20847996       0.41212972      -0.00335942      -0.00281324       0.00006760
H        1.76030053       2.47700064       1.63375977      -0.00083757      -0.00578100      -0.00057070
H        0.96930974      -1.21697730       2.39327314      -0.00013924      -0.00915000      -0.00256047
H        2.17650406      -1.08986644       1.08967669       0.00000691      -0.00285882       0.00000925
H        3.36061574      -2.46449662       2.72517904       0.00431978      -0.00255528      -0.00035606
H        2.67204896      -1.56103387       4.06761514      -0.00152677       0.00278953       0.00486223
H        4.60010480      -0.24903201       3.98992713       0.00084854       0.00222317       0.00473180
H        5.02437002      -0.79251046       2.37473342       0.00219792       0.00278549      -0.00090011
H        3.89973613       0.98237020       1.36044251       0.00155050       0.00465353       0.00302037
H        3.76732858       1.72725000       2.96690657       0.00101549       0.00067454      -0.00647857
C        1.45818981       1.20173610       6.07403831       0.00107336      -0.00162909       0.00087472
O        2.14710268       1.19491947       5.06904675       0.00156234      -0.00252718      -0.00118278
C        1.49209906       2.27032888       7.08426692      -0.00084817       0.00406796      -0.00338511
C        0.66690448       2.16531166       8.19969550      -0.00092810      -0.00023664      -0.00235668
C        0.67239712       3.15964535       9.16323892      -0.00388449      -0.00000754      -0.00380472
C        1.51087846       4.24103448       8.97218824      -0.00321697      -0.00114851       0.00043448
N        1.51949237       5.31633425       9.99548909      -0.00096856       0.00060765      -0.00122806
O        0.80634808       5.16432537      10.96211016       0.00318645       0.00267127      -0.00757981
O        2.23821227       6.26897027       9.78798911      -0.00134887      -0.00586987       0.00393860
C        2.34258972       4.37297016       7.87268745      -0.00129834       0.00087224       0.00236337
C        2.33075160       3.37143180       6.92093961       0.00092341       0.00465834      -0.00075014
H        0.77008477       0.36884199       6.28310364      -0.00340240      -0.00258056      -0.00051796
H        0.01471900       1.30743852       8.30975839       0.00485451      -0.00535829       0.00634168
H        0.04759700       3.11339826      10.04248467       0.00290321      -0.00098761      -0.00112981
H        2.97586695       5.24306732       7.78534846       0.00016677      -0.00211185      -0.00339135
H        2.96849472       3.43022236       6.04941997       0.00519503      -0.00001648       0.00098013
