53
Properties=species:S:1:pos:R:3:forces:R:3 Atoms:=T 53,=T ConfID:=T 1=T 0=T spin=1 charge=1 energy=-30761.915061567855 free_energy=-30761.915061567855 stress="0.007851888425648212 0.06159476190805435 -0.009550423361361027 0.06159476190805435 -0.03048713319003582 0.05061947554349899 -0.009550423361361027 0.05061947554349899 -0.0007293290109373629" pbc="F F F"
C        0.03045296      -0.05593671      -0.55358448      -0.00188032       0.00028509       0.00041959
C        1.19813124      -0.87111949      -0.99165461      -0.00011070       0.00402840      -0.00486627
C        2.49998061      -0.16391785      -1.10721843       0.00192781       0.00186929      -0.00399390
N        1.09455408      -2.09456282      -1.37641641       0.00395215       0.00122561       0.00501860
C        2.25698069      -2.97312997      -1.69980081      -0.00045269      -0.00472587       0.00112358
C        1.66306925      -4.37843808      -1.85434136      -0.00098214      -0.00336805       0.00395412
C        0.22634410      -4.26461801      -1.32774642       0.00030239       0.00595285       0.00152427
C       -0.16077907      -2.82986134      -1.66146615       0.00468913       0.00568136       0.00194001
C       -0.47980047      -2.67008789      -3.15406922      -0.00132199      -0.00144366      -0.00089569
N       -0.63920563      -1.29406441      -3.58380237       0.00243969       0.00388960       0.00182701
H        1.13604006      -0.42955399      -3.47462615       0.00041994      -0.00344811      -0.00362994
C       -0.57427520      -1.15941706      -5.05428594       0.00185037       0.00490585       0.00119730
C       -1.06755572       0.26554987      -5.30428151      -0.00221203       0.00267718       0.00061235
C       -1.97796633       0.57370747      -4.09170823      -0.00438975       0.00352914      -0.00177189
C       -1.95452911      -0.71469279      -3.27151107      -0.00048974       0.00369747      -0.00024422
H       -0.81427652      -0.64790119      -0.21822292      -0.00431742      -0.00072310      -0.00204598
H       -0.29589035       0.57465839      -1.38429593       0.00110789       0.00228732       0.00023280
H        0.34495508       0.60366251       0.25373281       0.00440591      -0.00169687       0.00144225
H        2.63213322       0.54617673      -0.29175301      -0.00310329      -0.00117857      -0.00116369
H        3.34989596      -0.83983203      -1.12850592       0.00534740       0.00392622       0.00083764
H        2.73846636      -2.59950521      -2.60169385      -0.00314429      -0.00660019       0.00175621
H        2.95948007      -2.91426302      -0.87115324       0.00193306      -0.00217099      -0.00562275
H        1.67390250      -4.68432464      -2.89852159       0.00223604      -0.00310856       0.00378306
H        2.24340829      -5.11019202      -1.29845755      -0.00198826      -0.00614058       0.00291215
H       -0.44991661      -4.98333367      -1.78693152       0.00323177       0.00516614       0.00227798
H        0.19324088      -4.41420840      -0.24826998      -0.00120344      -0.00431321      -0.00092492
H       -0.96839379      -2.44802629      -1.04371358       0.00072704      -0.00089569      -0.00050537
H       -1.37956076      -3.26710642      -3.36207752      -0.00336790      -0.00648320      -0.00378518
H        0.33430607      -3.11047862      -3.73395703       0.00205369      -0.00228202       0.00064816
H       -1.24289849      -1.89303959      -5.52508165       0.00889313       0.00136285      -0.00042518
H        0.43948845      -1.34164620      -5.41259469       0.00032795      -0.00115950       0.00209210
H       -1.59703606       0.33934710      -6.25131643       0.00117174       0.00027360      -0.00028907
H       -0.22749481       0.95785430      -5.34575776      -0.00104374      -0.00063632      -0.00153230
H       -1.57965978       1.40718552      -3.51137928       0.00082731      -0.00070573       0.00010384
H       -2.99157877       0.84057831      -4.38176930      -0.00633444       0.00248680      -0.00101319
H       -2.08810874      -0.55388777      -2.20246504      -0.00374470      -0.00285915       0.00062245
H       -2.74606741      -1.40156222      -3.60516094       0.00071690       0.00300943       0.00061526
C        2.46431710       0.61408828      -2.46878981       0.00328424       0.00029737       0.00178180
O        2.09894212      -0.25253182      -3.51528256      -0.00872455       0.00220856       0.00116800
C        3.83348142       1.19148784      -2.72752408       0.00277564       0.00052191       0.00354819
C        4.18410643       2.41273568      -2.16324044       0.00041130       0.00082018      -0.00022941
C        5.45409034       2.93331858      -2.34910959      -0.00197157       0.00074205       0.00137944
C        6.35451689       2.20830077      -3.10565984      -0.00596139      -0.00221422       0.00003699
N        7.71401481       2.75506128      -3.31138645      -0.00332747      -0.00052339       0.00410155
O        7.96272221       3.82799984      -2.80590962       0.00168316      -0.00292039       0.00014181
O        8.48534118       2.09068087      -3.96903266      -0.00051306       0.00450690       0.00199079
C        6.03198427       0.99565176      -3.68376332      -0.00174379      -0.00160363      -0.00329523
C        4.75818772       0.48694257      -3.48971615      -0.00099346       0.00214906      -0.00073222
H        1.74560640       1.43652661      -2.37662106       0.00143064      -0.00422449      -0.00619991
H        3.45977376       2.97516784      -1.58505519      -0.00012682      -0.00679933      -0.00052792
H        5.74902292       3.88330522      -1.92911716       0.00073345      -0.00045922       0.00042576
H        6.76973501       0.47268185      -4.27380453       0.00128223       0.00277596      -0.00614026
H        4.47414053      -0.44916338      -3.95008522       0.00328690       0.00240778       0.00031940
