53
Properties=species:S:1:pos:R:3:forces:R:3 Atoms:=T 53,=T ConfID:=T 0=T 1=T spin=1 charge=1 energy=-30761.498275374008 free_energy=-30761.498275374008 stress="-0.06826083362102509 -0.03630978986620903 0.006938484031707048 -0.03630978986620903 -0.012394307181239128 -0.04608331248164177 0.006938484031707048 -0.04608331248164177 -0.008145932108163834" pbc="F F F"
C       -0.05652461      -0.30515064      -0.07316443      -0.00021945       0.00372457       0.00148096
C        1.28156227      -0.73247333      -0.60580175       0.00130373      -0.00915482       0.00191642
C        2.40239411      -0.15377809      -0.15416281       0.00066569       0.00248277       0.00144245
N        1.30428227      -1.73071113      -1.58592905       0.00136180      -0.00422662      -0.00414620
C        2.54766400      -2.51479399      -1.71988646       0.00087890      -0.00329676      -0.00367780
C        2.10960127      -3.91857523      -2.14521233       0.00084318      -0.00049068      -0.00017867
C        0.66669543      -4.00594155      -1.64396030      -0.00480200       0.00203775      -0.00367810
C        0.15099443      -2.58430996      -1.87739868      -0.00475759       0.00032184      -0.00398979
C       -0.26578640      -2.44753557      -3.34575985       0.00058124       0.00147548       0.00104726
N       -0.48025917      -1.03451106      -3.75723145       0.00058588      -0.00514816       0.00122698
H        0.28064091      -0.47753261      -3.33773636      -0.00446017      -0.00245518      -0.00073313
C       -0.37902402      -0.84345922      -5.25448763       0.00682142      -0.00204566       0.00568031
C       -1.37898523       0.25257453      -5.56692089       0.00346115      -0.00290523      -0.00270217
C       -2.52728116      -0.08670570      -4.61955961       0.00006240      -0.00202607       0.00163572
C       -1.79915227      -0.42358737      -3.32531084       0.00718437      -0.00223749       0.00109665
H       -0.54192302      -1.10669536       0.48726580       0.00183016      -0.00202211       0.00360811
H       -0.73845187       0.00382550      -0.86630599      -0.00575223       0.00225844      -0.00057939
H        0.07242599       0.53613966       0.60186757       0.00348466       0.00831250       0.00240082
H        2.33636590       0.60569305       0.61052255       0.00009718       0.00665194       0.00234040
H        3.38992778      -0.42800476      -0.49441323      -0.00228818      -0.00256987      -0.00712274
H        3.23944862      -2.05292526      -2.42709659      -0.00172674       0.00291712      -0.00024185
H        3.04378805      -2.54653450      -0.74655160      -0.00245653      -0.00043071      -0.00392446
H        2.15729684      -4.04261996      -3.22795138       0.00531560       0.00522947      -0.00134046
H        2.74882158      -4.68428759      -1.71193371       0.00071624       0.00217875       0.00638418
H        0.07366354      -4.76674905      -2.15193179      -0.00017889      -0.00413065      -0.00215046
H        0.64658481      -4.22058974      -0.57496723      -0.00454761      -0.00151879      -0.00222968
H       -0.69012136      -2.34062010      -1.23217351      -0.00494603      -0.00066166      -0.00097171
H       -1.18001589      -3.00436355      -3.55730099       0.00699595      -0.00087385       0.00304619
H        0.52797182      -2.83369119      -3.98515335      -0.00424677       0.00348175       0.00140452
H       -0.66674055      -1.78565153      -5.72047755       0.00111572       0.00403540      -0.00042148
H        0.65465481      -0.61359937      -5.49869689       0.00415026       0.00261432      -0.00050467
H       -1.66648880       0.24719964      -6.61552741      -0.00472855      -0.00460187      -0.00503992
H       -0.95587138       1.22968424      -5.32912642      -0.00609743       0.00383971      -0.00162134
H       -3.22909575       0.73156328      -4.47691135      -0.00555505      -0.00093018       0.00165832
H       -3.08453205      -0.94976554      -4.98799035      -0.00427394      -0.00186120      -0.00191061
H       -1.56275589       0.48134540      -2.77032912       0.00129799       0.00042784       0.00211360
H       -2.31960385      -1.12076518      -2.67291012       0.00110144       0.00191428      -0.00175267
C        2.11918500       1.60462902      -2.67506777      -0.00004920      -0.00144970       0.00341335
O        1.33561516       0.98951094      -3.37354789      -0.00393566       0.00345898       0.00373366
C        3.58262544       1.53274257      -2.82195897       0.00033944       0.00375190       0.00279151
C        4.38111346       2.29595720      -1.97703590       0.00477436      -0.00213620      -0.00025182
C        5.76084013       2.22489907      -2.07553597       0.00343979      -0.00091230       0.00110676
C        6.29995199       1.38099305      -3.02703833      -0.00101878      -0.00148453      -0.00145317
N        7.77689779       1.28443514      -3.13072406       0.00012241       0.00086503       0.00283555
O        8.42937174       1.96936699      -2.37543995       0.00286867       0.00098508      -0.00121535
O        8.22290753       0.52354060      -3.96134274      -0.00251174       0.00024872      -0.00006640
C        5.52982924       0.61686162      -3.88809083      -0.00137236      -0.00082642      -0.00173638
C        4.15526766       0.69947082      -3.78050757      -0.00246516      -0.00097683       0.00268606
H        1.74935900       2.28135468      -1.88965721       0.00214189       0.00095242       0.00085161
H        3.92262893       2.93883302      -1.23534932       0.00532370      -0.00339823      -0.00285113
H        6.41459432       2.79881592      -1.43624940      -0.00340088       0.00429208       0.00213620
H        6.01364907      -0.01703896      -4.61583044       0.00509673      -0.00113583      -0.00320447
H        3.51380050       0.12580485      -4.43596511       0.00182899      -0.00255062       0.00165849
