53
Properties=species:S:1:pos:R:3:forces:R:3 Atoms:=T 53,=T ConfID:=T 1=T 0=T spin=1 charge=1 energy=-30761.672542189193 free_energy=-30761.672542189193 stress="-0.014525815844535828 0.018257595598697662 0.0520300567150116 0.018257595598697662 -0.009552297182381153 0.035697780549526215 0.0520300567150116 0.035697780549526215 -0.0010571421589702368" pbc="F F F"
C       -3.64712570       0.33198877      -5.17171884       0.00062264       0.00112676       0.00082078
C       -3.70818551      -0.20951208      -3.78461419      -0.00424419      -0.00084796      -0.00159414
C       -3.52228726      -1.67562681      -3.60741029       0.00041297      -0.00567997      -0.00131702
N       -3.89403695       0.58334292      -2.78519936      -0.00071177       0.00307701      -0.00335826
C       -3.96006995       2.05881850      -2.92774406       0.00059265       0.00672208       0.00221485
C       -3.41671994       2.56212374      -1.60080398      -0.00082245      -0.00027093       0.00165729
C       -3.96764122       1.55182693      -0.60236188      -0.00018290       0.00061587      -0.00109003
C       -3.91946468       0.20209180      -1.33059633      -0.00189236      -0.00040030      -0.00345436
C       -5.02875807      -0.77842922      -0.90050005      -0.00683500      -0.00380767      -0.00054737
N       -6.23578507      -0.79464054      -1.72620546      -0.00672199      -0.00200626      -0.00619856
H       -6.04989149      -1.29842659      -3.41934864      -0.00072269       0.00095589       0.00133978
C       -7.06453920       0.42330046      -1.61214001      -0.00517099       0.00299327       0.00163167
C       -7.81770275       0.30896050      -0.27737747      -0.00273780      -0.00256443       0.00382748
C       -7.90567337      -1.21304740      -0.02938094       0.00219182      -0.00249735      -0.00164827
C       -7.17065660      -1.83299526      -1.23059033       0.00043377      -0.00218131       0.00172549
H       -2.73268019       0.91913806      -5.29667041       0.00275375      -0.00464240      -0.00105158
H       -3.63537126      -0.48021087      -5.89200091      -0.00216819       0.00635488      -0.00214139
H       -4.50102149       0.97570007      -5.37904455       0.00385287       0.00344770       0.00496961
H       -2.58307363      -1.94294429      -4.09766128       0.00487235      -0.00370507      -0.00076993
H       -3.43996974      -1.94788404      -2.56053865       0.00454593       0.00318334       0.00214363
H       -3.37823980       2.37851749      -3.78605260      -0.00152089      -0.00517452      -0.00160372
H       -5.00173751       2.34539944      -3.08468840      -0.00114285      -0.00317071       0.00179797
H       -2.32590359       2.54029414      -1.61651722      -0.00346965      -0.00037951       0.00184917
H       -3.73033150       3.58246718      -1.39359937       0.00243494      -0.00157565      -0.00485750
H       -4.99423193       1.79910002      -0.33175836      -0.00014860       0.00071549      -0.00105733
H       -3.39326472       1.50631282       0.32062302       0.00510444       0.00504464      -0.00396921
H       -2.95709982      -0.27121532      -1.12676981       0.00051424      -0.00016873      -0.00169342
H       -4.63829968      -1.79582600      -0.90244596       0.00594820      -0.00410632       0.00390694
H       -5.24367985      -0.54177496       0.15044398      -0.00463333       0.00310572       0.00419955
H       -7.76740168       0.41090361      -2.44759583       0.00142744      -0.00248201      -0.00340612
H       -6.46794469       1.32729290      -1.70612397       0.00370008      -0.00009099      -0.00243021
H       -8.79581750       0.78142489      -0.33786602      -0.00192446       0.00121219      -0.00186675
H       -7.27527964       0.80659703       0.52768238       0.00374858      -0.00196826      -0.00004343
H       -8.93313809      -1.56666349       0.02321605       0.00341998       0.00320268       0.00243313
H       -7.42498716      -1.48661854       0.90932921      -0.00858257       0.00072752       0.00223007
H       -6.63260045      -2.75067565      -0.99638309       0.00074402      -0.00092730       0.00392484
H       -7.87162373      -2.05287145      -2.03797923       0.00565222       0.00302233       0.00150293
C       -4.71890311      -2.42720069      -4.28500160      -0.00144868      -0.00300011       0.00119457
O       -5.84111083      -1.58245907      -4.34447388      -0.00044296       0.00153117      -0.00030163
C       -4.38723979      -2.93555822      -5.67226187       0.00202286       0.00352360       0.00055438
C       -3.28924801      -3.77492135      -5.85201194      -0.00382041      -0.00408522      -0.00058774
C       -2.97222849      -4.26488910      -7.10544851       0.00276183       0.00037879      -0.00207048
C       -3.77396696      -3.90339746      -8.17297147       0.00040432       0.00152296       0.00260385
N       -3.43655530      -4.41403740      -9.51910013       0.00097327       0.00488815      -0.00398582
O       -4.15790229      -4.08437546     -10.43545022       0.00347531      -0.00249568       0.00485762
O       -2.45864801      -5.12430027      -9.61363243      -0.00474812      -0.00017489      -0.00428206
C       -4.87729923      -3.08834026      -8.02550476       0.00223277       0.00621998       0.00299969
C       -5.18377847      -2.60422223      -6.76128200      -0.00300412      -0.00074395       0.00403473
H       -4.92792818      -3.30247034      -3.65769557       0.00242026      -0.00376166       0.00147563
H       -2.67712796      -4.06728981      -5.00604495      -0.00303949       0.00202336      -0.00112629
H       -2.12719674      -4.91726377      -7.26649296       0.00231785      -0.00479764      -0.00146284
H       -5.48072278      -2.84449152      -8.88744640       0.00263229      -0.00095347       0.00108520
H       -6.04784324      -1.97264035      -6.61605695      -0.00207691       0.00306458      -0.00306500
