53
Properties=species:S:1:pos:R:3:forces:R:3 Atoms:=T 53,=T ConfID:=T 0=T 1=T spin=1 charge=1 energy=-30761.467167948318 free_energy=-30761.467167948318 stress="-0.07856980711221695 0.004769593011587858 0.005340835079550743 0.004769593011587858 0.0262477807700634 0.010309245437383652 0.005340835079550743 0.010309245437383652 -0.02577776461839676" pbc="F F F"
C       -2.62895000      -0.63426503      -4.22396475      -0.00094939      -0.00027045       0.00029226
C       -2.98590934      -0.58672163      -2.76528468       0.00049843       0.00182398       0.00522297
C       -2.66110821      -1.59740771      -1.94158860       0.00344788       0.00036289       0.00289240
N       -3.71025324       0.52401262      -2.35806631       0.00136038      -0.00147381       0.00806106
C       -3.66234593       1.81059676      -3.07597185       0.00000286      -0.00326715      -0.00000382
C       -3.60920317       2.85150050      -1.96300609      -0.00165991      -0.00064983       0.00119690
C       -4.42360973       2.19732947      -0.85295216       0.00185533      -0.00466061       0.00102799
C       -4.01209703       0.72489447      -0.94551015      -0.00229842      -0.00067784       0.00670615
C       -5.07126746      -0.25762731      -0.39968829       0.00275793       0.00168744       0.00246170
N       -5.85510213      -0.93414516      -1.47131638       0.00193414       0.00281898       0.00628720
H       -5.20539827      -1.33202958      -2.16463760      -0.00343093      -0.00202426       0.00366655
C       -6.84000343      -0.04177755      -2.16756709       0.00334191      -0.00377431      -0.00095475
C       -8.03860606       0.00679958      -1.22189517      -0.00266541       0.00244069      -0.00217731
C       -7.97488079      -1.31410176      -0.41992899      -0.00212020      -0.00002339       0.00184725
C       -6.72410554      -2.03022427      -0.93038798      -0.00003109      -0.00002638      -0.00215281
H       -1.83238748       0.07331281      -4.45739258       0.00196138       0.00295736      -0.00074406
H       -2.26747488      -1.62616051      -4.48622232      -0.00073975      -0.00376068      -0.00300972
H       -3.48642158      -0.38959823      -4.85352757      -0.00450312       0.00412343      -0.00217490
H       -2.12687015      -2.45032574      -2.33245233       0.00191116       0.00555526      -0.00018722
H       -2.82274434      -1.57420303      -0.87421063      -0.00114333      -0.00148849      -0.00072636
H       -2.79659970       1.86537276      -3.73013621       0.00414149       0.00471410      -0.00290304
H       -4.55551593       1.93986719      -3.69629196      -0.00375116       0.00049161       0.00017902
H       -2.57809894       2.99289896      -1.63497361       0.00202272      -0.00395889      -0.00540287
H       -4.00056918       3.81805350      -2.27307139      -0.00364699       0.00214426       0.00070863
H       -5.49407637       2.31286388      -1.04534008       0.00526084      -0.00152301       0.00194369
H       -4.22453495       2.60853673       0.13543357       0.00091042      -0.00393949      -0.00324143
H       -3.10423082       0.56931764      -0.34815904       0.00167300      -0.00052499      -0.00666494
H       -4.60972852      -1.05180381       0.18188945      -0.00036030       0.00199633      -0.00172655
H       -5.77550686       0.26269403       0.24978688       0.00207175      -0.00223335      -0.00302864
H       -7.07661825      -0.53777793      -3.10614587       0.00155141      -0.00366538      -0.00348526
H       -6.37857912       0.91540282      -2.38328496      -0.00221822      -0.00044401      -0.00043548
H       -8.96079824       0.10333008      -1.78935714      -0.00704913       0.00153265      -0.00276980
H       -7.98149664       0.86824529      -0.55773936       0.00283677       0.00373863       0.00130459
H       -8.85296993      -1.93543150      -0.57679281      -0.00426822      -0.00135158       0.00321931
H       -7.90665428      -1.11898545       0.64872400       0.00098349       0.00174087       0.00366969
H       -6.17531477      -2.59077713      -0.17796443      -0.00189660      -0.00118275      -0.00109888
H       -6.94073031      -2.68165406      -1.77427288      -0.00489899      -0.00141076      -0.00372925
C       -4.85892996      -3.10529329      -4.51354894       0.00082027       0.00151598      -0.00060106
O       -5.55529870      -2.30602037      -3.92159199      -0.00219384       0.00469418      -0.00130267
C       -4.76139132      -3.19259990      -5.97888886      -0.00058445       0.00143659      -0.00561401
C       -3.91251330      -4.14145640      -6.53931662       0.00207721      -0.00096222      -0.00046270
C       -3.78089261      -4.22841331      -7.91604919       0.00235069       0.00039379      -0.00007762
C       -4.51256185      -3.35126934      -8.69162399       0.00096603       0.00053419       0.00235330
N       -4.37113867      -3.42660157     -10.16762514      -0.00167463      -0.00078274       0.00724293
O       -5.02642079      -2.64769478     -10.82397938       0.00109390      -0.00328212      -0.00409337
O       -3.60962996      -4.25848182     -10.60746004      -0.00137631      -0.00284892      -0.00236802
C       -5.37053137      -2.40065896      -8.16193373      -0.00033789       0.00001317      -0.00289164
C       -5.49287552      -2.32456522      -6.78893021      -0.00141540       0.00425845      -0.00347451
H       -4.23329029      -3.81887860      -3.95007814       0.00303619      -0.00346623       0.00205847
H       -3.35380898      -4.81349880      -5.89920780       0.00415095      -0.00018492       0.00054609
H       -3.13152690      -4.94999473      -8.38842103      -0.00013091       0.00121710       0.00142461
H       -5.91741344      -1.74799141      -8.82566319      -0.00026846       0.00032570       0.00169897
H       -6.15095263      -1.59820854      -6.33168078       0.00059441       0.00134121       0.00149119
