53
Properties=species:S:1:pos:R:3:forces:R:3 Atoms:=T 53,=T ConfID:=T 1=T 0=T spin=1 charge=1 energy=-30761.762760256363 free_energy=-30761.762760256363 stress="0.045216552913188934 0.012138093821704388 0.020022600889205933 0.012138093821704388 0.05195680633187294 -0.006609328091144562 0.020022600889205933 -0.006609328091144562 0.026867283508181572" pbc="F F F"
C       -2.09688370      -1.84519032      -1.91333893       0.00247744      -0.00001281      -0.00202811
C       -1.24470559      -2.58771972      -0.93912365       0.00305772       0.00208464       0.00059355
C       -0.61433984      -3.84508370      -1.43577175       0.00188776      -0.00164274       0.00234278
N       -1.13704431      -2.15229563       0.26902069      -0.00150078       0.00139444      -0.00032332
C       -2.00086859      -1.09200328       0.85165407       0.00148448       0.00425029       0.00091399
C       -2.04526681      -1.41696479       2.35612276      -0.00000132       0.00018744       0.00143653
C       -1.23661196      -2.71677146       2.51912127      -0.00004705       0.00428958      -0.00075847
C       -0.26826594      -2.68323635       1.34414011      -0.00268413      -0.00000332      -0.00145739
C        0.89366698      -1.71328159       1.61368347      -0.00164488      -0.00074157      -0.00324254
N        1.70051669      -1.40318078       0.44508340       0.00146274      -0.00112304      -0.00074313
H        1.75977102      -2.80924216      -0.59505336      -0.00279318       0.00717798      -0.00467348
C        1.34961685      -0.16465263      -0.26374872      -0.00108194      -0.00129792       0.00126269
C        2.51519501       0.03537619      -1.23288555      -0.00100894       0.00051256       0.00123397
C        3.71307377      -0.65940725      -0.54387570       0.00031666       0.00100078       0.00211820
C        3.13392738      -1.22731853       0.75099605       0.00248997      -0.00305226       0.00019363
H       -3.10922388      -2.26142256      -1.89166664       0.00128909      -0.00159235      -0.00168184
H       -2.15415442      -0.77893249      -1.71055305       0.00253503       0.00066374       0.00221019
H       -1.71103436      -2.00362283      -2.91925550       0.00076765      -0.00334555      -0.00428068
H       -1.29415437      -4.23416440      -2.19597171       0.00516320      -0.00059702       0.00127414
H       -0.51855169      -4.59507842      -0.65183919      -0.00443359      -0.00040138       0.00355072
H       -1.56508982      -0.11507117       0.64243815       0.00584205       0.00362585       0.00221339
H       -2.97973625      -1.14261433       0.38364960       0.00146810      -0.00296163       0.00047509
H       -1.60608174      -0.60467388       2.93069232      -0.00090182       0.00102873       0.00210105
H       -3.07027635      -1.53556380       2.69762536      -0.00049540      -0.00270642       0.00058846
H       -1.88312903      -3.59118073       2.44111405       0.00464803       0.00318547       0.00457346
H       -0.71588331      -2.77015875       3.47343154      -0.00201531       0.00662972      -0.00264478
H        0.12688606      -3.65026783       1.04584397      -0.00397638      -0.00345955       0.00200845
H        0.52011156      -0.79541685       2.08754962       0.00177360       0.00099081      -0.00351592
H        1.52024540      -2.21112036       2.35574480      -0.00438108      -0.00287002      -0.00399001
H        0.38771547      -0.24960590      -0.77234232      -0.00040407      -0.00354956      -0.00148865
H        1.28253692       0.67025877       0.44956458      -0.00059165      -0.00323165       0.00452334
H        2.29835290      -0.43873444      -2.19016249       0.00201674       0.00140155      -0.00174452
H        2.69370240       1.09062761      -1.42697354      -0.00388841       0.00184037       0.00454372
H        4.53138224       0.02766425      -0.34200981       0.00074035       0.00052585       0.00264503
H        4.10182967      -1.46138072      -1.16888754      -0.00203938       0.00237846      -0.00066213
H        3.57356192      -2.18017120       1.04444415       0.00593293      -0.00362985      -0.00373720
H        3.25578095      -0.51904124       1.58147521      -0.00135074      -0.00255366      -0.00152189
C        0.80109985      -3.67590151      -2.07436687      -0.00553783      -0.00661639      -0.00221279
O        1.78186526      -3.67121926      -1.08190724       0.00018007      -0.00727068      -0.00610989
C        1.03021388      -4.83268747      -3.02163977      -0.00214435       0.00087349      -0.00543112
C        0.51655786      -4.77224918      -4.31311492      -0.00164590      -0.00002373      -0.00174131
C        0.65533402      -5.84301239      -5.17841727      -0.00314782      -0.00153545       0.00328997
C        1.31565975      -6.96879865      -4.72276162       0.00591913       0.00338922       0.00181327
N        1.45574290      -8.12563421      -5.63368349       0.00537706      -0.00007939       0.00169575
O        0.97781940      -8.01972639      -6.74295673       0.00299662      -0.00002058       0.00029084
O        2.03415897      -9.10173168      -5.20810192       0.00235517       0.00279283       0.00000184
C        1.85104414      -7.05139267      -3.45243876      -0.00061890       0.00057889       0.00522520
C        1.70558447      -5.96945693      -2.59706382      -0.00295603       0.00186871      -0.00023112
H        0.81687237      -2.74478723      -2.65922755      -0.00172113      -0.00361853       0.00446940
H        0.01249146      -3.87533924      -4.65689709      -0.00230393      -0.00186290      -0.00147861
H        0.27082631      -5.81930229      -6.18703509      -0.00381364       0.00287554       0.00033570
H        2.36992189      -7.94867475      -3.14918812      -0.00155979       0.00081252      -0.00259263
H        2.12853080      -6.00207199      -1.60305466      -0.00149215       0.00344070       0.00036730
