53
Properties=species:S:1:pos:R:3:forces:R:3 Atoms:=T 53,=T ConfID:=T 0=T 1=T spin=1 charge=1 energy=-30761.482667540145 free_energy=-30761.482667540145 stress="0.039635226130485535 -0.0300361979752779 0.0005141174187883735 -0.0300361979752779 -0.03046078234910965 0.012380366213619709 0.0005141174187883735 0.012380366213619709 0.013165405951440334" pbc="F F F"
C       -2.81036833      -0.91982030      -1.31704334       0.00228310      -0.00039552      -0.00149344
C       -1.68347131      -1.83195642      -0.92245292       0.00333498      -0.00062184       0.00053115
C       -1.02455450      -2.54840615      -1.84665741       0.00000560      -0.00175218       0.00141181
N       -1.36126709      -1.80757951       0.42976871       0.00458085       0.00177473       0.00065179
C       -2.39602913      -1.50801962       1.43522355      -0.00060337       0.00083243      -0.00673177
C       -1.72347840      -1.86441385       2.75129832      -0.00286688       0.00638771      -0.00640216
C       -0.87727047      -3.07729210       2.36913580      -0.00444249       0.00210813       0.00196453
C       -0.35434244      -2.71294570       0.97304646       0.00264230       0.00061009       0.00369725
C        1.02147161      -2.06002384       1.11520920       0.00160757      -0.00078411      -0.00199529
N        1.53453974      -1.37132793      -0.10843595       0.00232015      -0.00050476       0.00334519
H        1.34259534      -1.96455592      -0.92524609       0.00309012       0.00221282       0.00625395
C        0.94980230       0.00388495      -0.39144953       0.00085956      -0.00681750       0.00087663
C        2.14459289       0.90294989      -0.72355937      -0.00095706      -0.00004240      -0.00169016
C        3.27678726      -0.07211755      -1.05022844       0.00287818      -0.00043241       0.00070204
C        3.02841606      -1.19449738      -0.06633994      -0.00253863       0.00167092      -0.00266724
H       -3.75225023      -1.23757046      -0.86818354       0.00146535       0.00266784      -0.00006722
H       -2.62097168       0.10377254      -0.98614376       0.00263887      -0.00112908       0.00377382
H       -2.93249774      -0.92108079      -2.39644946      -0.00631941       0.00014313      -0.00361404
H       -1.32205957      -2.47523382      -2.88228593      -0.00176396      -0.00053893       0.00191753
H       -0.24648942      -3.26017699      -1.61291188       0.00164568       0.00032516       0.00209209
H       -2.70209999      -0.46399555       1.38511088      -0.00158533      -0.00045323       0.00267181
H       -3.28293057      -2.13159214       1.27965978      -0.00060667      -0.00112070       0.00078439
H       -1.09391308      -1.03974360       3.09326326       0.00235541      -0.00040113      -0.00006692
H       -2.44252314      -2.07976396       3.53862176       0.00611317       0.00130266      -0.00295395
H       -1.50677315      -3.96468879       2.29884514       0.00497135      -0.00519564       0.00258842
H       -0.07541682      -3.29239247       3.07608183      -0.00609339      -0.00705012      -0.00083890
H       -0.26340025      -3.60662655       0.35087544      -0.00070130       0.00226421       0.00332457
H        1.01719228      -1.30980463       1.90799942      -0.00212505      -0.00577939      -0.00254364
H        1.75313357      -2.82678221       1.37371830      -0.00322964       0.00001486      -0.00109283
H        0.25742364      -0.11308816      -1.22054799      -0.00334994      -0.00120718       0.00505823
H        0.39017176       0.32062933       0.48353025       0.00307298      -0.00005441      -0.00321650
H        1.91527269       1.57644076      -1.54580729      -0.00069808       0.00642687      -0.00118030
H        2.41245250       1.51228497       0.13978810       0.00167183      -0.00209303       0.00203094
H        4.26565738       0.36335224      -0.92792070       0.00037523       0.00901879      -0.00070774
H        3.19243247      -0.44961402      -2.07067447      -0.00376832      -0.00238710       0.00361599
H        3.49453757      -2.14502705      -0.31077004      -0.00093313       0.00638921       0.00311695
H        3.28866921      -0.90158466       0.95193271      -0.00229630      -0.00061238      -0.00906356
C        2.13599377      -3.70665262      -3.30552138       0.00145304       0.00118074       0.00351479
O        2.20463808      -3.17727003      -2.21400481      -0.00239354      -0.00884260       0.00235758
C        1.91301201      -5.14452672      -3.51847926       0.00211361       0.00677825      -0.00111008
C        1.77168617      -5.61087036      -4.82126821       0.00302952       0.00436879      -0.00060708
C        1.54505454      -6.95730876      -5.05592037       0.00072117       0.00359816      -0.00501254
C        1.47291895      -7.79992652      -3.96509189      -0.00225263       0.00253778      -0.00121459
N        1.23058605      -9.24482890      -4.20517285      -0.00155898      -0.00459294       0.00272508
O        1.10739589      -9.60060680      -5.35548477       0.00115274       0.00295804       0.00177679
O        1.17235804      -9.96245558      -3.23117713      -0.00135584      -0.00370092       0.00370001
C        1.61580725      -7.36573346      -2.65681107      -0.00007665       0.00180597       0.00052455
C        1.83645464      -6.02111554      -2.43617156      -0.00161159       0.00383278      -0.00307079
H        2.23349327      -3.09872325      -4.22094786       0.00031362      -0.00643811       0.00224610
H        1.83689254      -4.92003725      -5.65282316       0.00073012      -0.00165934      -0.00537349
H        1.42676991      -7.35596310      -6.05189579       0.00098667      -0.00541141      -0.00634589
H        1.55464450      -8.07943809      -1.84926164      -0.00179725      -0.00241591       0.00367789
H        1.95955217      -5.63875982      -1.43189314      -0.00248751       0.00122500      -0.00187167
