53
Properties=species:S:1:pos:R:3:forces:R:3 Atoms:=T 53,=T ConfID:=T 1=T 0=T spin=1 charge=1 energy=-30761.7956148134 free_energy=-30761.7956148134 stress="0.02351882867515087 0.029630213975906372 0.017886441200971603 0.029630213975906372 -0.021752653643488884 0.009268630295991898 0.017886441200971603 0.009268630295991898 -0.04023410379886627" pbc="F F F"
C        1.27256807      -4.02949550      -2.48333536      -0.00068503       0.00260419       0.00342414
C        1.12865701      -2.60172927      -2.08219001       0.00088918       0.00576061       0.00157828
C        1.80359639      -1.58198508      -2.93006105       0.00303922       0.00546644      -0.00006817
N        0.42702579      -2.28292574      -1.04912790       0.00403001       0.00094453       0.00398888
C       -0.34981837      -3.28078609      -0.27008391      -0.00178524      -0.00091936       0.00018063
C       -1.50405273      -2.46729076       0.28980576       0.00339222       0.00244777       0.00126205
C       -0.84848456      -1.12937516       0.60299341      -0.00209420       0.00034974      -0.00003621
C        0.13813903      -0.89277913      -0.54622175      -0.00309045      -0.00160268       0.00084149
C        1.35451790      -0.03665862      -0.14808173      -0.00280130      -0.00052966      -0.00135179
N        2.50473166      -0.74792565       0.37832071       0.00015117       0.00067708      -0.00062737
H        3.28050417      -1.83726035      -0.80189758      -0.00016109      -0.00281307       0.00393739
C        2.32625425      -1.39022968       1.68837367       0.00038646      -0.00234876      -0.00080398
C        3.75481085      -1.70269671       2.14458079       0.00173081      -0.00131857       0.00060953
C        4.64011053      -0.69704973       1.37344910       0.00156413      -0.00159132       0.00198549
C        3.64456391       0.16298768       0.60138860       0.00298901      -0.00095978       0.00045241
H        0.32932583      -4.38092346      -2.91288498       0.00312236      -0.00254199      -0.00341847
H        2.04934635      -4.13025329      -3.23571428      -0.00137333      -0.00306533       0.00390454
H        1.51911700      -4.65926192      -1.63034109      -0.00003734      -0.00224770       0.00160609
H        1.48034865      -0.57569501      -2.68541392       0.00076847       0.00368382       0.00083319
H        1.52099434      -1.78147833      -3.96613060      -0.00297212       0.00169025       0.00209359
H       -0.66211429      -4.09516387      -0.91581694      -0.00084234      -0.00076496      -0.00376854
H        0.29124477      -3.68285787       0.51689502       0.00194367       0.00746981       0.00084162
H       -1.94888583      -2.94063591       1.16186394       0.00234793      -0.00140393      -0.00531270
H       -2.28118416      -2.35516244      -0.46822336       0.00616714       0.00194578       0.00395689
H       -1.55863901      -0.30793555       0.67044297      -0.00287427      -0.00113966      -0.00068965
H       -0.31438839      -1.18059075       1.55139053      -0.00156608      -0.00371728      -0.00269628
H       -0.38087399      -0.38036025      -1.35901617      -0.00369923       0.00036104       0.00195365
H        0.97665378       0.69707639       0.58149363      -0.00383239      -0.00000442      -0.00343931
H        1.70071732       0.54357605      -1.00405480      -0.00079448       0.00282565       0.00185765
H        1.83795779      -0.69118360       2.38339417      -0.00029984      -0.00341436       0.00072086
H        1.70474220      -2.28230049       1.61167211      -0.00023688      -0.00439607       0.00097759
H        4.02482182      -2.72644135       1.89038358      -0.00300369      -0.00176672      -0.00129497
H        3.84764957      -1.59992291       3.22346897       0.00390124      -0.00033280       0.00054261
H        5.29931045      -1.22032403       0.68241888       0.00267680       0.00115942       0.00246879
H        5.26211635      -0.09452471       2.03107492      -0.00467359       0.00293894       0.00138645
H        3.32187214       1.02699537       1.19882562      -0.00239947       0.00190498      -0.00785704
H        4.02891434       0.53241338      -0.35053960      -0.00143044      -0.00010011      -0.00017303
C        3.35496693      -1.73807955      -2.75388266       0.00098204       0.00164661       0.00376598
O        3.63896854      -2.39033724      -1.54033683      -0.00087292      -0.00222832       0.00316870
C        3.99752367      -2.49230974      -3.89799091      -0.00242501       0.00142041       0.00044344
C        3.84747868      -2.01807194      -5.19978445       0.00472295      -0.00034555      -0.00191851
C        4.43621448      -2.67670133      -6.26299528       0.00293035      -0.00218971      -0.00498009
C        5.17682216      -3.81510429      -6.00020924      -0.00115214      -0.00284537      -0.00083409
N        5.80619581      -4.52949304      -7.13184801      -0.00002636      -0.00103312      -0.00318184
O        5.63696672      -4.06958370      -8.24059288       0.00060502      -0.00511869      -0.00056268
O        6.44551533      -5.52601112      -6.87343559      -0.00355665       0.00120585       0.00172273
C        5.35383827      -4.30322496      -4.72216764      -0.00287580       0.00047858       0.00174527
C        4.75920727      -3.63011150      -3.66386668      -0.00080528       0.00414488       0.00218354
H        3.77207450      -0.72361504      -2.75269394      -0.00017043       0.00140115      -0.00362066
H        3.27842048      -1.11544405      -5.39292364       0.00037583      -0.00087442       0.00403417
H        4.33632928      -2.32439948      -7.27856897       0.00298955       0.00082964      -0.00747305
H        5.95030157      -5.19003665      -4.56627188      -0.00004841       0.00212696      -0.00377300
H        4.89325117      -3.98273036      -2.65174110       0.00087964      -0.00387006      -0.00058574
