53
Properties=species:S:1:pos:R:3:forces:R:3 Atoms:=T 53,=T ConfID:=T 0=T 1=T spin=1 charge=1 energy=-30761.520196055008 free_energy=-30761.520196055008 stress="-0.06095919385552406 0.029653146862983704 0.05127476155757904 0.029653146862983704 -0.02040345035493374 -0.05545896664261818 0.05127476155757904 -0.05545896664261818 -0.03318488597869873" pbc="F F F"
C        0.83034446      -2.82081958      -3.17324401       0.00043862      -0.00223133      -0.00096288
C        0.57972160      -1.61787690      -2.30743961      -0.00110706      -0.00152688       0.00255156
C        0.65766930      -0.37917463      -2.81549573      -0.00009607       0.00045233       0.00151265
N        0.31894406      -1.88637606      -0.96536885      -0.00424734      -0.00018630       0.00380998
C       -0.30707462      -3.15401848      -0.53823632      -0.00054767      -0.00045664       0.00317967
C       -1.39834235      -2.72250600       0.43424704      -0.00207452      -0.00530190      -0.00297220
C       -0.79223242      -1.48649493       1.08827255      -0.00177262       0.00098264      -0.00081982
C       -0.07881583      -0.79632832      -0.07824094       0.00125482      -0.00022401       0.00161237
C        1.10326430       0.09423768       0.33996065      -0.00031183      -0.00156425       0.00041506
N        2.40466826      -0.62412002       0.35181380      -0.00050478       0.00012302      -0.00251917
H        2.53081070      -1.10196106      -0.55669260       0.00243626       0.00187714      -0.00036520
C        2.58908910      -1.65731387       1.41846931      -0.00368895       0.00361061       0.00012778
C        4.08762045      -1.92615014       1.40821947       0.00020577       0.00065809      -0.00203770
C        4.73424464      -0.59247590       0.97471984      -0.00204164       0.00362422       0.00018867
C        3.57477030       0.29953277       0.52303602      -0.00215387       0.00302656       0.00263942
H       -0.09786736      -3.34743531      -3.39880694      -0.00088926       0.00232451      -0.00157808
H        1.26381414      -2.51221062      -4.12225572       0.00316560      -0.00573026      -0.00582893
H        1.50429956      -3.52891425      -2.68745592      -0.00093897      -0.00431964       0.00087686
H        0.42568598       0.51534930      -2.25816706      -0.00293656       0.00378453      -0.00404401
H        0.89114918      -0.25050342      -3.86195142      -0.00282145       0.00173490      -0.00126147
H       -0.70644226      -3.70427507      -1.38530500      -0.00055178       0.00737306       0.00015791
H        0.42727097      -3.79937768      -0.04469354       0.00397329       0.00380945      -0.00336139
H       -1.66009507      -3.50343547       1.14515085      -0.00124801       0.00129830       0.00568428
H       -2.29945113      -2.45083862      -0.11811163      -0.00157298       0.00567235       0.00077769
H       -1.52922111      -0.82994545       1.54736110      -0.00397862       0.00132506       0.00374860
H       -0.08306656      -1.77752754       1.86601793       0.00437272      -0.00202344      -0.00183473
H       -0.79421978      -0.14146286      -0.59241697       0.00346213      -0.00541483       0.00137155
H        0.94270268       0.49987309       1.34011671       0.00384608      -0.00142276      -0.00083690
H        1.23316387       0.93016516      -0.34395229      -0.00062645      -0.00083008       0.00244812
H        2.25511172      -1.20880752       2.35520035      -0.00297806      -0.00093692       0.00093479
H        1.97632201      -2.52408946       1.18954983      -0.00228430       0.00232676       0.00098909
H        4.31764604      -2.70767431       0.68759414      -0.00026276      -0.00614960      -0.00140535
H        4.42683898      -2.25801369       2.38647082       0.00333915      -0.00594859      -0.00162339
H        5.43944055      -0.75453096       0.16365327      -0.00344585       0.00297644       0.00095629
H        5.27212226      -0.11706465       1.79159718       0.00316512       0.00258331       0.00061756
H        3.29349378       1.02520309       1.28544462       0.00051035       0.00429136       0.00115096
H        3.74117804       0.82066903      -0.41684605       0.00188419      -0.00209065       0.00179414
C        3.88945005      -1.76584058      -2.95566475      -0.00006661      -0.00276763       0.00459498
O        3.74867110      -1.92843826      -1.75878083       0.00422182       0.00107101       0.00368421
C        4.46295081      -2.77020207      -3.86194694       0.00102340      -0.00537623      -0.00144505
C        4.53594230      -2.47843101      -5.22036373       0.00025278       0.00216958      -0.00084580
C        5.03791350      -3.41780312      -6.10623437      -0.00167031       0.00193640       0.00152137
C        5.45659178      -4.62952161      -5.59311712      -0.00154654       0.00159062      -0.00241736
N        5.98754491      -5.64763580      -6.53453599       0.00158935       0.00008415       0.00311864
O        6.00491347      -5.35660374      -7.70960697       0.00431209      -0.00410440       0.00802835
O        6.36220868      -6.69590871      -6.05768455       0.00044041       0.00322772      -0.00707306
C        5.40267173      -4.94547363      -4.24477109       0.00204879      -0.00111516      -0.00659284
C        4.89753786      -4.00182772      -3.37261370       0.00130854      -0.00648033      -0.00462838
H        3.55925084      -0.82589467      -3.42844060      -0.00098521      -0.00082793      -0.00046280
H        4.19744807      -1.51637693      -5.58576728      -0.00157235       0.00150357      -0.00469102
H        5.10616220      -3.23025686      -7.16728382       0.00395865      -0.00368445       0.00529372
H        5.75008218      -5.91092387      -3.90886499      -0.00111662       0.00032321      -0.00267735
H        4.83235450      -4.20757267      -2.31273518      -0.00117083       0.00495329      -0.00150156
