53
Properties=species:S:1:pos:R:3:forces:R:3 Atoms:=T 53,=T ConfID:=T 1=T 0=T spin=1 charge=1 energy=-30761.807460402084 free_energy=-30761.807460402084 stress="-0.01955583691596985 -0.028902199119329453 -0.03651903197169304 -0.028902199119329453 0.011727537028491497 0.0035632369108498096 -0.03651903197169304 0.0035632369108498096 -0.015989327803254128" pbc="F F F"
C        1.24868304       4.29632423      -4.39788724      -0.00080338       0.00144198      -0.00369176
C        1.30210692       4.44421607      -2.91425709       0.00389598       0.00182099      -0.00491000
C        1.59575442       5.80564552      -2.35538524      -0.00051086      -0.00467963      -0.00157042
N        1.12345766       3.44172645      -2.13010580      -0.00624086       0.00599337      -0.00161017
C        1.18685277       3.52234316      -0.64187505       0.00239161       0.00283221      -0.00368161
C        0.89613745       2.10962317      -0.15117166       0.00197411       0.00647289       0.00445343
C        1.23369179       1.21868023      -1.34708833       0.00026828       0.00109884       0.00731801
C        0.85131080       2.04093222      -2.57546611       0.00477018       0.00356736       0.00136495
C       -0.60397539       1.90136005      -3.02657312       0.00090377      -0.00071917       0.00048823
N       -1.55322516       2.25506595      -1.99148436      -0.00542539      -0.00310843      -0.00530562
H       -1.33640166       6.69197145      -1.41755110      -0.00110391      -0.00540435       0.00205046
C       -2.23312103       1.12240706      -1.35695752      -0.00386733      -0.00247985      -0.00203965
C       -3.37477909       1.76726304      -0.56412150      -0.00223137       0.00439147      -0.00083125
C       -3.57852488       3.14990372      -1.22630849       0.00287151       0.00406695      -0.00402801
C       -2.64106991       3.13020464      -2.42925924      -0.00111731       0.00063297      -0.00048394
H        1.86840693       5.05536284      -4.86967027       0.00359179      -0.00123440       0.00098441
H        1.55920383       3.31122332      -4.73504586      -0.00200964       0.00124272      -0.00529007
H        0.22540728       4.46726808      -4.74029520      -0.00270398      -0.00168869       0.00002281
H        1.94760160       5.74024857      -1.32970458      -0.00105936      -0.00161255      -0.00402845
H        2.38703914       6.25054881      -2.95954561      -0.00008377       0.00035305       0.00845457
H        2.19429403       3.84061740      -0.37118839      -0.00167283       0.00275374       0.00182004
H        0.46438225       4.26059918      -0.30434415       0.00205914      -0.00595647      -0.00005794
H        1.49957828       1.86999904       0.72142849      -0.00057898      -0.00116772       0.00560083
H       -0.15248224       2.02357958       0.11630215       0.00120583      -0.00354566      -0.00155874
H        2.30327497       1.00393146      -1.37093212       0.00080031       0.00220971       0.00065069
H        0.70794930       0.26604552      -1.33266808       0.00079343      -0.00401176       0.00399056
H        1.50721848       1.81526797      -3.41523380       0.00367456      -0.00214245      -0.00339002
H       -0.76355412       2.53597021      -3.90176176      -0.00134778       0.00533886       0.00414021
H       -0.73819000       0.86783695      -3.37223451      -0.00320921      -0.00167306      -0.00106561
H       -1.55034308       0.54892426      -0.72857159      -0.00296845      -0.00258831       0.00317924
H       -2.62912249       0.43775947      -2.12197097      -0.00633522       0.00046385      -0.00731724
H       -3.10907994       1.87826723       0.48599566       0.00495079      -0.00152988       0.00255458
H       -4.27145793       1.15255862      -0.60672824      -0.00450293       0.00054505       0.00274438
H       -4.61144914       3.32960210      -1.51788935       0.00272405      -0.00466691      -0.00203923
H       -3.28523386       3.94366182      -0.53937819       0.00057750       0.00345119      -0.00277134
H       -3.15112296       2.71493132      -3.31322067       0.00562461       0.00106265       0.00180696
H       -2.25067271       4.11618535      -2.68634870       0.00340881      -0.00413921       0.00182741
C        0.37085590       6.74311093      -2.37948475       0.00243844      -0.00410553       0.00054343
O       -0.63994169       6.06868099      -1.65409725      -0.00516611      -0.00151570      -0.00005701
C       -0.05013759       7.13581740      -3.78336264       0.00138359      -0.00446363      -0.00100810
C        0.80627845       7.92864976      -4.54467969      -0.00113093       0.00841752       0.00382317
C        0.48094915       8.27584144      -5.84333962      -0.00037212      -0.00443123       0.00101629
C       -0.71888510       7.82280053      -6.36230453      -0.00279515       0.00426808       0.00210203
N       -1.07019656       8.17497586      -7.75623603      -0.00238555      -0.00400676       0.00182340
O       -2.13029123       7.76801933      -8.17886647      -0.00184622      -0.00257075      -0.00294552
O       -0.27002654       8.83943211      -8.37708229      -0.00199647       0.00185557       0.00225084
C       -1.60219061       7.06063682      -5.62593373       0.00289880      -0.00523414      -0.00183133
C       -1.25875676       6.71772166      -4.32492976      -0.00261733       0.00842710       0.00148323
H        0.67923407       7.65016020      -1.84978040       0.00450612       0.00366412      -0.00342732
H        1.73590843       8.28965473      -4.11929114       0.00511105       0.00349967       0.00015600
H        1.13086224       8.88885446      -6.45028626      -0.00409836      -0.00250653      -0.00344421
H       -2.53484650       6.74519269      -6.07068785       0.00197956       0.00524100       0.00464417
H       -1.93870160       6.11848058      -3.73472701       0.00537719      -0.00392988      -0.00290928
