53
Properties=species:S:1:pos:R:3:forces:R:3 Atoms:=T 53,=T ConfID:=T 0=T 1=T spin=1 charge=1 energy=-30761.391996954513 free_energy=-30761.391996954513 stress="-0.018217304721474648 0.030553167685866356 -0.028598908334970474 0.030553167685866356 -0.012324653565883636 0.017048295587301254 -0.028598908334970474 0.017048295587301254 0.02640947513282299" pbc="F F F"
C        1.09112070       4.05230947      -4.25136291      -0.00417415      -0.00140620       0.00058368
C        1.23547547       4.06595451      -2.75489010      -0.00057856      -0.00055394       0.00144503
C        1.65221975       5.16765744      -2.11235248      -0.00000263       0.00037375      -0.00213114
N        0.96231062       2.88652703      -2.07366826       0.00450924      -0.00111146       0.00092461
C        1.60217743       2.62072764      -0.78463561       0.00251186      -0.00234578      -0.00012452
C        1.47949685       1.10613009      -0.60079108       0.00033356       0.00047451       0.00485122
C        1.33722973       0.57731252      -2.02959516       0.00307180       0.00081823       0.00034452
C        0.49465066       1.66323571      -2.69882303      -0.00202355       0.00293254       0.00061379
C       -1.00970176       1.38432069      -2.45845294      -0.00307421       0.00432730      -0.00045348
N       -1.83579138       2.61228991      -2.24861505      -0.00136013      -0.00039029       0.00218637
H       -1.55956021       3.35043499      -2.90727830      -0.00514134      -0.00450493       0.00082343
C       -1.68584264       3.23738093      -0.87142172       0.00216413       0.00024670       0.00019423
C       -3.09168062       3.65170457      -0.47068306       0.00114768       0.00071483      -0.00239547
C       -3.95668228       2.55892778      -1.08921851      -0.00117201      -0.00135533      -0.00327697
C       -3.32440676       2.37513114      -2.45870784       0.00456161       0.00301383      -0.00127081
H        1.30873287       5.04134650      -4.64728206       0.00011980       0.00311417       0.00396118
H        1.79245615       3.34721511      -4.70210376      -0.00280579      -0.00136222      -0.00295667
H        0.08545056       3.77921266      -4.58034211      -0.00662077      -0.00339657       0.00186341
H        1.79979193       5.19758084      -1.04191679       0.00207590       0.00036085      -0.00398334
H        1.92110497       6.04729672      -2.67828763      -0.00073811       0.00304654       0.00171499
H        2.64490712       2.94876772      -0.82990059       0.00038378      -0.00496785      -0.00030674
H        1.12681124       3.17273957       0.03184871       0.00418314      -0.00036010      -0.00440335
H        2.33754830       0.68764209      -0.08025835       0.00134224       0.00024961       0.00498053
H        0.59525183       0.85751244      -0.00869680      -0.00420556      -0.00088228      -0.00067392
H        2.31059069       0.53136680      -2.51832771       0.00608584      -0.00352827      -0.00138722
H        0.88511060      -0.41325093      -2.08467029      -0.00238213       0.00159933      -0.00171771
H        0.66249864       1.69888103      -3.77286392       0.00174434       0.00005907       0.00017312
H       -1.41830957       0.86066562      -3.32166968      -0.00016917      -0.00410324       0.00719604
H       -1.16764392       0.75729469      -1.57978458      -0.00039134       0.00574397      -0.00510922
H       -0.96855280       4.05006037      -0.93929518       0.00733664      -0.00150252      -0.00165277
H       -1.29165037       2.46772133      -0.20925890      -0.00268751      -0.00314969       0.00037950
H       -3.33971755       4.62276290      -0.90169730       0.00407815       0.00289061      -0.00188105
H       -3.18990049       3.72232613       0.61052737      -0.00124695      -0.00293962      -0.00196357
H       -3.89210064       1.63773195      -0.50698188       0.00197567       0.00081091       0.00653310
H       -5.00620631       2.83174304      -1.17056226      -0.00451320      -0.00095416      -0.00194783
H       -3.47025412       1.39244038      -2.89737240       0.00376251       0.00424338      -0.00029082
H       -3.66275670       3.13701390      -3.15812279      -0.00037894       0.00184472      -0.00188902
C       -1.28412385       6.16898898      -3.17504164      -0.00133385      -0.00237209      -0.00099147
O       -1.83293513       5.11629033      -3.44570625      -0.00161179      -0.00267735       0.00023223
C       -0.83482296       7.14239224      -4.18001730       0.00336920      -0.00596903      -0.00268039
C       -0.15764890       8.28186187      -3.75622498      -0.00647905       0.00076619       0.00033408
C        0.29308807       9.20481106      -4.68528020       0.00578541      -0.00355194       0.00399920
C        0.04453683       8.95322190      -6.02049157      -0.00045356       0.00332904       0.00403816
N        0.52489483       9.93755154      -7.02267766      -0.00563102       0.00396676      -0.00126666
O        0.30206683       9.69170966      -8.18726581       0.00342922      -0.00267486      -0.00149894
O        1.10466561      10.91392606      -6.60264201       0.00281361      -0.00192184      -0.00683842
C       -0.63059787       7.83070870      -6.47143890       0.00634987      -0.00096680       0.00216768
C       -1.07218876       6.91603449      -5.53551640      -0.00343833       0.00245169      -0.00209945
H       -1.09494687       6.44621983      -2.12535275      -0.00505058       0.00515834      -0.00096636
H        0.02122965       8.44343780      -2.69998326      -0.00334509       0.00174696      -0.00024202
H        0.82377357      10.09999929      -4.39843163      -0.00195468       0.00269738       0.00534759
H       -0.79565298       7.69626027      -7.53002068      -0.00113638       0.00231083       0.00408802
H       -1.60685923       6.02655839      -5.83997831       0.00096504      -0.00034399      -0.00257667
