53
Properties=species:S:1:pos:R:3:forces:R:3 Atoms:=T 53,=T ConfID:=T 1=T 0=T spin=1 charge=1 energy=-30762.073513601852 free_energy=-30762.073513601852 stress="0.06173577159643173 0.06315501034259796 0.025433475151658058 0.06315501034259796 0.007501461077481508 -0.034630339592695236 0.025433475151658058 -0.034630339592695236 0.024806179106235504" pbc="F F F"
C       -3.68326104       1.33030782       0.15762762      -0.00410427      -0.00055524       0.00291194
C       -2.19981890       1.40145025       0.03913025      -0.00205339      -0.00492933      -0.00353480
C       -1.58335361       2.75043792      -0.08791399       0.00142137      -0.00106412      -0.00082734
N       -1.50581497       0.31764579       0.07809159      -0.00099245      -0.00501780       0.00163684
C       -2.13356927      -1.02730700       0.20684186       0.00355321      -0.00503693      -0.00313350
C       -0.98220237      -2.01914550       0.05923238       0.00193044      -0.00038183      -0.00348315
C        0.08653477      -1.21167658      -0.67666702       0.00116641       0.00151435       0.00152350
C       -0.02151618       0.17248950      -0.04120202      -0.00108768       0.00058551       0.00278019
C        0.65504463       0.21125412       1.33274675      -0.00254752       0.00246637       0.00085525
N        0.83046775       1.53818046       1.89513629      -0.00416330       0.00433340      -0.00110122
H       -0.80749223       2.30656641       2.27035603      -0.00042010       0.00632288       0.00188592
C        1.28982565       1.46768340       3.29674617       0.00370269      -0.00370286      -0.00324872
C        1.75166470       2.88866455       3.59647718      -0.00347493      -0.00274676       0.00333440
C        2.24576709       3.42458968       2.23550703      -0.00499977      -0.00106853       0.00167356
C        1.88102831       2.32793681       1.22850595       0.00248525      -0.00282080      -0.00134731
H       -4.10445207       0.57081925      -0.50035704       0.00564782      -0.00133429      -0.00413956
H       -3.94464405       1.06840433       1.18604353       0.00389762      -0.00421266       0.00716407
H       -4.13436680       2.28964499      -0.07726880       0.00049668       0.00490807       0.00281120
H       -2.03725551       3.25259325      -0.94611583       0.00440193       0.00468220      -0.00311841
H       -0.50994779       2.69664924      -0.23947007       0.00467785       0.00326138       0.00053946
H       -2.65774208      -1.09151386       1.15955268       0.00489133       0.00257316      -0.00565590
H       -2.86106732      -1.13884286      -0.59637574      -0.00018292       0.00183672       0.00180209
H       -0.62341536      -2.34571568       1.03431604       0.00307524       0.00188261      -0.00512307
H       -1.29195918      -2.90487675      -0.48946086      -0.00424697       0.00224158      -0.00191462
H       -0.14580286      -1.14734639      -1.74098529      -0.00126253      -0.00587420       0.00250397
H        1.08697854      -1.62591883      -0.57537690      -0.00115285      -0.00219622       0.00218250
H        0.36583373       0.95149516      -0.69253640      -0.00051759       0.00265730       0.00575094
H        0.06808471      -0.38278603       2.03769322      -0.00174497       0.00117861       0.00103871
H        1.62935396      -0.29023648       1.22695447      -0.00343439      -0.00043660      -0.00456863
H        0.48297416       1.11971896       3.94372839       0.00205636       0.00593494      -0.00245660
H        2.12521612       0.75842249       3.38047014       0.00915816      -0.00244707      -0.00030831
H        0.91597554       3.48552236       3.96026530      -0.00524499       0.00353414      -0.00296075
H        2.52440654       2.90438787       4.36168268       0.00176843       0.00133274       0.00011476
H        3.31828962       3.60895481       2.22917127      -0.00444276      -0.00678348      -0.00374087
H        1.75259480       4.36228172       1.98500315      -0.00433344       0.00171206       0.00156453
H        1.53982236       2.73300947       0.27407089      -0.00837229       0.00079631       0.00392589
H        2.74772674       1.68325738       1.02375193       0.00761469      -0.00535832       0.00087908
C       -1.88619783       3.51867332       1.21963821      -0.00020503       0.00230275       0.00306360
O       -1.73750267       2.63598473       2.31226930      -0.00174450       0.00153379       0.00431321
C       -1.03788077       4.76773400       1.36969434      -0.00338988       0.00565495      -0.00160759
C       -0.88643329       5.30631883       2.64627674       0.00053754       0.00198424      -0.00186413
C       -0.11953111       6.44086802       2.84611165      -0.00006236      -0.00084903       0.00013351
C        0.48738618       7.02854905       1.75092623      -0.00362552      -0.00380474      -0.00186698
N        1.32835078       8.22858016       1.95617366      -0.00405728      -0.00208418      -0.00023804
O        1.46563822       8.62101369       3.09415984      -0.00216126       0.00014500       0.00018719
O        1.82564785       8.73171071       0.97187299       0.00502117      -0.00046319       0.00703624
C        0.34031280       6.53395470       0.47136775       0.00726758      -0.00599826      -0.00294847
C       -0.42994987       5.39491967       0.28749662      -0.00304099       0.00279868      -0.00215051
H       -2.93838382       3.81521532       1.21757948      -0.00044317      -0.00152784       0.00852728
H       -1.36619054       4.82234088       3.48641032       0.00201695       0.00439198      -0.00413210
H        0.01558631       6.87154819       3.82744706      -0.00083353      -0.00040064       0.00025441
H        0.82629300       7.03269817      -0.35397289      -0.00244417      -0.00007212      -0.00555782
H       -0.54574148       5.01024000      -0.71767470       0.00399805      -0.00139876       0.00063422
