53
Properties=species:S:1:pos:R:3:forces:R:3 Atoms:=T 53,=T ConfID:=T 0=T 1=T spin=1 charge=1 energy=-30761.514287088943 free_energy=-30761.514287088943 stress="-0.0319383442401886 0.008457350544631481 -0.04852578416466713 0.008457350544631481 -0.04096660763025284 0.011576860211789608 -0.04852578416466713 0.011576860211789608 -0.008202916011214256" pbc="F F F"
C       -2.81454622       2.65283081       0.92684239       0.00069094       0.00248661      -0.00208052
C       -1.64459389       2.16699766       0.11618082       0.00233010       0.00055098       0.00058113
C       -0.92993588       3.01917348      -0.62653670       0.00260665       0.00250837       0.00266098
N       -1.39552852       0.79073543       0.25441504       0.00370916       0.00092006       0.00053048
C       -2.57920131      -0.10124803       0.27703060      -0.00084710       0.00243683       0.00058839
C       -2.03713372      -1.46345970      -0.12874230      -0.00118332      -0.00363343       0.00082568
C       -0.92822089      -1.09846893      -1.11339664       0.00148225      -0.00015194       0.00112518
C       -0.29961547       0.14144044      -0.47090307       0.00123949      -0.00320897       0.00080554
C        0.77801921      -0.29708725       0.52018645       0.00151137      -0.00053882      -0.00371936
N        1.26076786       0.82565118       1.37122861      -0.00099046      -0.00157621      -0.00215328
H        0.43044487       1.32477777       1.71555180       0.00031170      -0.00145548       0.00121019
C        2.05198937       0.37055693       2.58716959       0.00093170      -0.00129231      -0.00002237
C        3.43406450       0.98773871       2.42567684      -0.00022099       0.00187608       0.00160078
C        3.14862214       2.27678457       1.65986317      -0.00384436       0.00054858      -0.00011594
C        2.11921309       1.83051314       0.63706220      -0.00440593       0.00077317       0.00030457
H       -3.75899704       2.29993729       0.51081776      -0.00144863       0.00349482      -0.00470820
H       -2.75566094       2.28198064       1.95235478      -0.00578156      -0.00157677      -0.00127367
H       -2.84135579       3.73997415       0.93704644      -0.00199204       0.00520435      -0.00401889
H       -1.19633963       4.06587007      -0.62864305      -0.00090753      -0.00134567      -0.00110670
H       -0.12423728       2.72584111      -1.28326970      -0.00520081      -0.00253146       0.00146179
H       -3.05049823      -0.10703775       1.25859531       0.00035438       0.00183658       0.00466820
H       -3.31820604       0.23818098      -0.45534023      -0.00206899       0.00074631      -0.00474279
H       -1.63683726      -1.99601321       0.73585986      -0.00030345      -0.00299770       0.00441987
H       -2.80568019      -2.09298501      -0.57108727      -0.00673286      -0.00026499      -0.00264595
H       -1.35644203      -0.82493751      -2.07836988       0.00261262      -0.00335355       0.00096365
H       -0.20843148      -1.89971473      -1.28254195       0.00122710       0.00228704       0.00204605
H        0.12935425       0.79943462      -1.22569299      -0.00405123      -0.00376492       0.00214446
H        0.35925392      -1.04197810       1.19628628       0.00081493       0.00367143      -0.00251712
H        1.64373936      -0.72761190       0.01517867       0.00245965       0.00106326      -0.00272694
H        1.53162465       0.76075948       3.45820085       0.00112263       0.00138780       0.00148493
H        2.04837863      -0.71521197       2.62024820       0.00311409      -0.00326692      -0.00164145
H        3.90720781       1.15554100       3.39026709       0.00506540      -0.00048450       0.00157079
H        4.08351183       0.33370206       1.84123083       0.00002574      -0.00001560       0.00307634
H        4.03017291       2.69752031       1.18093086      -0.00212670       0.00243363       0.00180259
H        2.72160938       3.03133017       2.32234411      -0.00409325      -0.00185610       0.00242429
H        1.47499860       2.61646182       0.25550491      -0.00213803       0.00270044      -0.00545117
H        2.58723442       1.30711176      -0.19710149       0.00215200      -0.00061292       0.00493332
C       -0.76082583       3.54137624       3.50413668       0.00415877      -0.00192670      -0.00121730
O       -0.04164819       2.67112852       3.05747646       0.00111034       0.00160458      -0.00150816
C       -0.82391998       4.91543801       2.98065558       0.00213934       0.00096608      -0.00163610
C       -1.72808292       5.81010036       3.54371786      -0.00158688      -0.00305480      -0.00248648
C       -1.82203100       7.10329559       3.05338385       0.00262217      -0.00017431       0.00437062
C       -0.99465831       7.45956585       2.00712950      -0.00112549       0.00131785       0.00054340
N       -1.08511907       8.84149701       1.47171714       0.00126950      -0.00385674       0.00216555
O       -1.88434002       9.58500742       1.99392716      -0.00696389       0.00033554       0.00339966
O       -0.35167821       9.12317105       0.54959532      -0.00123704       0.00328109      -0.00415106
C       -0.08113514       6.59197566       1.42987994      -0.00162364       0.00254615      -0.00173371
C       -0.00040079       5.30669611       1.92609887       0.00559734       0.00410498      -0.00124359
H       -1.42827751       3.32328824       4.35499529       0.00143111      -0.00478735       0.00100325
H       -2.36134478       5.49602352       4.36447556       0.00151105      -0.00244111       0.00215531
H       -2.51251294       7.82519788       3.46288804       0.00221732       0.00178089      -0.00094124
H        0.53737523       6.93621585       0.61450459       0.00447005      -0.00114505       0.00154617
H        0.69116316       4.59227988       1.50211313       0.00058539      -0.00154888      -0.00257110
