53
Properties=species:S:1:pos:R:3:forces:R:3 Atoms:=T 53,=T ConfID:=T 1=T 0=T spin=1 charge=1 energy=-30761.92041692598 free_energy=-30761.92041692598 stress="0.010536199435591698 0.013775012455880642 -0.04161277785897255 0.013775012455880642 0.019378436729311943 -0.00029816970345564187 -0.04161277785897255 -0.00029816970345564187 -0.0193036962300539" pbc="F F F"
C        0.20762427      -2.18521269       4.33990602      -0.00139470      -0.00114864       0.00241781
C        0.35141839      -3.30148807       3.36477271       0.00598372      -0.00139899       0.00169508
C       -0.40804726      -4.55344215       3.63549083      -0.00126488       0.00055984       0.00242262
N        1.01190575      -3.18462079       2.26639418      -0.00001501      -0.00028889       0.00403239
C        1.29065511      -4.30801777       1.32207844      -0.00069712      -0.00249624      -0.00193348
C        2.28998133      -3.73879736       0.30814501      -0.00235439      -0.00173886      -0.00019892
C        2.76214146      -2.41502938       0.92095820       0.00289162      -0.00042990       0.00005192
C        1.54050254      -1.92619802       1.68757871       0.00331905      -0.00043093       0.00007156
C        0.47403596      -1.35457424       0.74610666       0.00160413      -0.00161270       0.00002759
N       -0.75482033      -0.96490550       1.41311586       0.00107424      -0.00197093      -0.00026867
H       -1.63194174      -2.81368906       1.92036728       0.00077890       0.00341578       0.00135108
C       -1.83760381      -0.71193184       0.43545512      -0.00022871       0.00117026      -0.00190375
C       -2.85260084       0.16593411       1.18275705       0.00005471       0.00058829      -0.00117166
C       -2.09070024       0.68108795       2.42141208      -0.00114002      -0.00039652       0.00063170
C       -0.64332267       0.31673766       2.12745270      -0.00248246      -0.00018886       0.00092188
H       -0.71096502      -1.63533724       4.11777432       0.00457980       0.00163209       0.00457183
H        0.10013462      -2.59755686       5.34140591       0.00577976       0.00583609      -0.00209687
H        1.04373240      -1.49196538       4.32167121      -0.00428642      -0.00452310       0.00130201
H       -0.37659901      -4.79224459       4.69595658       0.00166364      -0.00103914       0.00220317
H       -0.01393880      -5.39667323       3.07742277      -0.00027423      -0.00038991      -0.00164578
H        0.35380115      -4.63600042       0.87617031      -0.00468418       0.00359175      -0.00389209
H        1.71877344      -5.12736711       1.89582771      -0.00224189       0.00141088       0.00182215
H        3.11222027      -4.43004342       0.14065466      -0.00399804       0.00679012       0.00139651
H        1.80641683      -3.57266365      -0.65248196       0.00291080      -0.00374102      -0.00082092
H        3.59101617      -2.57820790       1.61038105       0.00024128       0.00047340       0.00460203
H        3.08580344      -1.69339107       0.17355341      -0.00390770      -0.00309921      -0.00379848
H        1.78272889      -1.22188079       2.47825071      -0.00197396       0.00035221      -0.00025254
H        0.22846769      -2.10745575      -0.00658444      -0.00221401      -0.00297977      -0.00066753
H        0.92771055      -0.50563025       0.21252479      -0.00082591      -0.00000243       0.00086149
H       -2.25112471      -1.65484243       0.07388296      -0.00169933       0.00249006       0.00074924
H       -1.43417288      -0.17114808      -0.43064213       0.00214100       0.00075519      -0.00033875
H       -3.18473475       0.98418291       0.54718157       0.00011929      -0.00131094      -0.00091219
H       -3.74322439      -0.39406108       1.46403326       0.00150655       0.00365966      -0.00207899
H       -2.21808335       1.74885342       2.58511681      -0.00056624       0.00192815      -0.00484926
H       -2.42705516       0.16783691       3.32325137       0.00000411       0.00119099       0.00356266
H       -0.02612950       0.23309729       3.02186339      -0.00145476       0.00092609      -0.00193516
H       -0.18055856       1.06882142       1.47035549       0.00295537      -0.00263772       0.00280358
C       -1.88777144      -4.31413815       3.17120175       0.00092093       0.00321023      -0.00162909
O       -1.90017486      -3.75336932       1.88029046       0.00114660      -0.00026881      -0.00008581
C       -2.70884473      -3.53208560       4.18245183      -0.00190124      -0.00517238      -0.00121666
C       -2.73769314      -3.91986602       5.52197916       0.00343552      -0.00368561      -0.00239243
C       -3.47436886      -3.20669748       6.45077430       0.00177825      -0.00365329      -0.00192896
C       -4.18235344      -2.09927877       6.02004901       0.00095642      -0.00248954      -0.00081878
N       -4.94741707      -1.31015772       7.00981011      -0.00198560      -0.00316558      -0.00092652
O       -4.94515014      -1.70555277       8.15472040       0.00398903       0.00182061       0.00086039
O       -5.51657987      -0.31918696       6.60589417      -0.00557846       0.00454812       0.00280104
C       -4.20555877      -1.71000279       4.69750719      -0.00216733      -0.00083467       0.00169961
C       -3.46808664      -2.44189820       3.77784838      -0.00120391      -0.00095142       0.00111037
H       -2.33071042      -5.30633039       3.06870083       0.00091209       0.00256720      -0.00103261
H       -2.19491291      -4.79647463       5.85450490       0.00173648       0.00184365      -0.00065783
H       -3.50920973      -3.49366050       7.49145898       0.00039299       0.00378791      -0.00068954
H       -4.79540584      -0.85377705       4.40260243      -0.00132086      -0.00499399      -0.00199024
H       -3.50175635      -2.16843705       2.73308030      -0.00101541       0.00249117      -0.00183604
