53
Properties=species:S:1:pos:R:3:forces:R:3 Atoms:=T 53,=T ConfID:=T 0=T 1=T spin=1 charge=1 energy=-30761.525285814834 free_energy=-30761.525285814834 stress="0.07661648839712143 -0.04575764387845993 -0.03929368779063225 -0.04575764387845993 0.014868026599287987 0.04461917281150818 -0.03929368779063225 0.04461917281150818 0.08173693716526031" pbc="F F F"
C        0.22418314      -1.71274233       4.24752901       0.00093312       0.00214148       0.00500582
C        0.41812947      -3.01661468       3.52821354      -0.00953818       0.00250657       0.00126716
C        0.14870538      -4.17408157       4.14782623       0.00552280       0.00192991       0.00386900
N        0.86067976      -2.97204034       2.20255367      -0.00315118       0.00403903       0.00286662
C        1.56371815      -4.16254761       1.68533365      -0.00485921       0.00284125       0.00118320
C        2.58237587      -3.63617776       0.67148334       0.00181707       0.00283697      -0.00120903
C        2.80251044      -2.18723921       1.10915031       0.00104924       0.00415368      -0.00213462
C        1.40735869      -1.76763917       1.57649825      -0.00022205       0.00116945      -0.00122518
C        0.56772939      -1.37596332       0.35897282      -0.00095155      -0.00113672       0.00039865
N       -0.85063126      -1.09266004       0.70859867       0.00114616      -0.00203964       0.00392341
H       -1.16430846      -1.80306737       1.38936334       0.00034056      -0.00284229       0.00242684
C       -1.78106029      -1.20100562      -0.47902205       0.00316604      -0.00045712       0.00633650
C       -2.83994094      -0.14421767      -0.23034116       0.00046338      -0.00176948      -0.00136118
C       -2.01497275       0.99595812       0.36287077      -0.00127934       0.00061287      -0.00308494
C       -1.08974338       0.27096448       1.33126633       0.00073214       0.00017447      -0.00080812
H       -0.46684422      -1.05279480       3.71909128       0.00260228      -0.00097919       0.00123582
H       -0.19020300      -1.90282116       5.23445361      -0.00598581      -0.00121112       0.00167721
H        1.16685189      -1.17834386       4.37945447       0.00308780       0.00285903      -0.00018050
H       -0.17361197      -4.16353876       5.17821863      -0.00146982      -0.00111068       0.00140498
H        0.27016047      -5.13747298       3.67445933      -0.00738658       0.00074786       0.00175252
H        0.86961900      -4.88215212       1.24864203      -0.00379584      -0.00237496      -0.00203397
H        2.06726285      -4.65548615       2.52086728       0.00170870      -0.00263044      -0.00274276
H        3.49915822      -4.22089316       0.68698596       0.00210342      -0.00281643       0.00452947
H        2.19397192      -3.68314726      -0.34682905      -0.00631747      -0.00062597      -0.00014597
H        3.48686549      -2.14435042       1.95719178       0.00097622       0.00126006      -0.00254414
H        3.20273347      -1.54937425       0.32106399      -0.00034430       0.00193571      -0.00572903
H        1.44305986      -0.93830920       2.28076647       0.00206679      -0.00139697      -0.00172859
H        0.55494042      -2.19991699      -0.35424099       0.00106608       0.00044738       0.00012473
H        0.96822299      -0.49193844      -0.13997120       0.00027357      -0.00382406       0.00123019
H       -2.14578734      -2.22382084      -0.53683103       0.00093728       0.00280633      -0.00169331
H       -1.19677246      -0.97176269      -1.37002039      -0.00005404      -0.00634493       0.00516711
H       -3.35863285       0.12784602      -1.14664272       0.00379468       0.00387135      -0.00228011
H       -3.57511351      -0.50560215       0.49000126       0.00035440       0.00320511       0.00116967
H       -1.44255492       1.49912297      -0.41839795       0.00092939       0.00241878      -0.00236465
H       -2.61463152       1.74523564       0.87445537      -0.00101647      -0.00022935       0.00200064
H       -1.58080010       0.10081897       2.28580046      -0.00254367      -0.00074844      -0.00248810
H       -0.13222510       0.75780907       1.49861530       0.00233477      -0.00134998      -0.00090657
C       -2.71446798      -3.26463761       3.25845232       0.00361801       0.00462539       0.00131221
O       -2.51274875      -2.30515183       2.53556565      -0.00209513       0.00592789       0.00034813
C       -3.22110147      -3.15869845       4.63603436      -0.00563255      -0.00228581       0.00456205
C       -3.44772109      -4.32605701       5.35806403       0.00033756      -0.00199404       0.00260072
C       -3.92486854      -4.25789627       6.65651918       0.00001749      -0.00097057       0.00280284
C       -4.15658397      -3.00776172       7.19672057       0.00291001       0.00049160      -0.00248129
N       -4.66379372      -2.92287063       8.58949898       0.00210023      -0.00155365      -0.00222241
O       -4.87508905      -3.96692741       9.16487270       0.00504115       0.00510020      -0.00542925
O       -4.82834102      -1.81451832       9.04980734       0.00175629      -0.00404038      -0.00663136
C       -3.93943665      -1.82858332       6.50311558      -0.00219007      -0.00215016      -0.00082797
C       -3.46875317      -1.91113182       5.20686522       0.00000958      -0.00198186      -0.00016449
H       -2.53715962      -4.28611879       2.89065646       0.00239223       0.00061396      -0.00272964
H       -3.24729145      -5.28875544       4.90368674      -0.00172428      -0.00088082       0.00359881
H       -4.11706666      -5.14131856       7.24655821       0.00257695      -0.00080926      -0.00060636
H       -4.14382878      -0.88291721       6.98265863       0.00158980      -0.00340230      -0.00363609
H       -3.29467910      -1.01541838       4.62594027       0.00080273      -0.00475957      -0.00340463
