53
Properties=species:S:1:pos:R:3:forces:R:3 Atoms:=T 53,=T ConfID:=T 1=T 0=T spin=1 charge=1 energy=-30761.87426481111 free_energy=-30761.87426481111 stress="0.02336333692073822 0.02537159062922001 -0.015757009387016296 0.02537159062922001 0.03879241645336151 -0.019542613998055458 -0.015757009387016296 -0.019542613998055458 0.000543996982742101" pbc="F F F"
C        0.93609010       2.78101453       6.34606501      -0.00118373       0.00097722       0.00013781
C        1.32713764       1.35035377       6.49541136      -0.00706563       0.00051849      -0.00618497
C        0.81303990       0.62990432       7.68860825       0.00159834      -0.00154187      -0.00215814
N        1.97337344       0.73109604       5.57036650       0.00516686       0.00209605       0.00197311
C        2.51833493      -0.64681194       5.67902724       0.00389175      -0.00006724       0.00348244
C        3.65310181      -0.63773099       4.66901858       0.00009721       0.00085407       0.00018305
C        3.09278989       0.20288467       3.52625326      -0.00281383       0.00019597       0.00147629
C        2.24393667       1.28479822       4.20710400      -0.00330667      -0.00336294       0.00257227
C        0.94711557       1.65179030       3.46399436      -0.00209701       0.00027080      -0.00277932
N       -0.19148151       0.78335331       3.73282149      -0.00368301       0.00060791       0.00322713
H       -0.52940625      -0.07482566       5.39983820      -0.00005922      -0.00634373       0.00123685
C       -0.20266103      -0.49144177       2.98676921       0.00180747      -0.00215819       0.00187661
C       -1.65959280      -0.96986773       3.05832826      -0.00095785      -0.00250616      -0.00144784
C       -2.47379565       0.29086555       3.42138907      -0.00147917       0.00024126      -0.00265793
C       -1.45982280       1.42308056       3.33329928      -0.00379713       0.00247425       0.00282776
H        0.94748298       3.25889905       7.32378618      -0.00035436      -0.00058860       0.00001405
H        1.58414354       3.33167143       5.67032596      -0.00434924       0.00181801       0.00120976
H       -0.08860578       2.83731789       5.96724023       0.00289970      -0.00012603      -0.00030194
H        0.77983268       1.29560764       8.54998802      -0.00217676      -0.00758733       0.00288318
H        1.39198412      -0.25332461       7.94361811       0.00204625      -0.00339237      -0.00043224
H        2.84521871      -0.83806695       6.69603122       0.00290731      -0.00147658       0.00420787
H        1.72541987      -1.35016422       5.42344644       0.00209215       0.00330068      -0.00292958
H        4.53495970      -0.16701569       5.10615304      -0.00004278       0.00572635      -0.00586308
H        3.92716806      -1.64427783       4.36209877      -0.00087176       0.00070013      -0.00029222
H        3.86860061       0.65328616       2.91095340      -0.00157419      -0.00446362      -0.00287363
H        2.47034780      -0.40696183       2.87309945      -0.00445527      -0.00053223       0.00501666
H        2.83970685       2.19089722       4.33532149       0.00030837      -0.00875284      -0.00129561
H        1.18983819       1.67099132       2.39158308       0.00463355      -0.00010993      -0.00519596
H        0.65070387       2.66665210       3.72539852       0.00568707       0.00373623       0.00048483
H        0.10525476      -0.31671179       1.94657662      -0.00190124       0.00855324      -0.00021909
H        0.48922888      -1.21087949       3.42508479       0.00687734      -0.00049329       0.00713453
H       -1.77987899      -1.73966012       3.81791375      -0.00086249      -0.00184499       0.00158086
H       -1.96772753      -1.39742372       2.10685335       0.00321556      -0.00255578      -0.00469851
H       -2.86405933       0.21130513       4.43604181       0.00338089       0.00102781      -0.00162627
H       -3.31817257       0.45407759       2.75605647      -0.00142175      -0.00088197      -0.00349514
H       -1.38514211       1.80409620       2.30498953       0.00449620      -0.00728146       0.00099383
H       -1.68433275       2.26631664       3.98853217      -0.00106661       0.00828885       0.00099721
C       -0.63995418       0.15258700       7.34419020      -0.00029146       0.00141312       0.00443014
O       -0.62328850      -0.64922705       6.19261300       0.00008273       0.00958032      -0.00215396
C       -1.18032521      -0.62600424       8.51749832      -0.00375644      -0.00391390       0.00282200
C       -1.82284600       0.04489562       9.55150425       0.00010885       0.00119236       0.00191781
C       -2.29143606      -0.64816032      10.65522660       0.00371634      -0.00056971       0.00194942
C       -2.10129073      -2.01579415      10.69725973      -0.00259664       0.00015950      -0.00233498
N       -2.60244535      -2.76722628      11.86959895      -0.00155112       0.00244548      -0.00263820
O       -2.41068417      -3.96378947      11.88553336       0.00367587       0.00488447      -0.00267301
O       -3.16970554      -2.13379042      12.73316218       0.00536610      -0.00132898       0.00115017
C       -1.47038932      -2.71001511       9.68256271       0.00124932      -0.00121328       0.00284824
C       -1.00741980      -2.00375467       8.58434975      -0.00108603      -0.00267595       0.00144383
H       -1.26800637       1.03922781       7.19344713      -0.00590393      -0.00340749       0.00191770
H       -1.97596612       1.11639426       9.49315178       0.00080006       0.00343397      -0.00076485
H       -2.80178504      -0.15221802      11.46729970       0.00090681      -0.00133462      -0.00040071
H       -1.35477370      -3.78083369       9.76118656      -0.00372716       0.00095034      -0.00474546
H       -0.52981365      -2.52738703       7.76763391      -0.00257969       0.00506438      -0.00183280
