53
Properties=species:S:1:pos:R:3:forces:R:3 Atoms:=T 53,=T ConfID:=T 0=T 1=T spin=1 charge=1 energy=-30761.434822653366 free_energy=-30761.434822653366 stress="-0.07523448020219803 0.026611987501382828 -0.02976047806441784 0.026611987501382828 0.044401299208402634 -0.03309440240263939 -0.02976047806441784 -0.03309440240263939 0.07264591008424759" pbc="F F F"
C        1.00039397       3.24385089       5.92011668      -0.00100480       0.00231026       0.00030068
C        1.16733683       1.91494148       6.60534984       0.00325604       0.00241354      -0.00369511
C        0.90938742       1.80791468       7.91686650       0.00386417      -0.00093103      -0.00164399
N        1.53262815       0.82558426       5.81179842      -0.00031738       0.00234578      -0.00801834
C        2.05625256      -0.38296375       6.46977218       0.00003963       0.00133825      -0.00174894
C        3.19875465      -0.84556420       5.57403604       0.00345311      -0.00368409      -0.00234678
C        2.73996934      -0.40036950       4.19483601       0.00056847      -0.00117352      -0.00200576
C        2.09418302       0.96184057       4.46182636       0.00028176      -0.00165309      -0.00824988
C        1.05247295       1.35671634       3.40731061      -0.00243035       0.00062083       0.00178528
N       -0.26697732       0.69487478       3.62948810      -0.00005840      -0.00079976       0.00224635
H       -0.38918657       0.59081151       4.65194486      -0.00237872       0.00326249       0.00350608
C       -0.44475664      -0.69710478       3.04897208      -0.00201909       0.00028600      -0.00142911
C       -1.82877403      -0.70468154       2.39215474      -0.00318258       0.00329940       0.00131670
C       -2.54633877       0.50463319       2.99388069      -0.00028819       0.00235756       0.00099588
C       -1.42455765       1.51310099       3.12852948       0.00167158      -0.00223201       0.00063787
H        0.87591062       4.02244638       6.66717239      -0.00295148      -0.00028505       0.00029780
H        1.86218208       3.50627027       5.30509735      -0.00220580       0.00313648       0.00173088
H        0.11199240       3.26159844       5.28306188       0.00135578       0.00262991      -0.00077007
H        0.62574842       2.68976574       8.47181703       0.00348119      -0.00028370       0.00282118
H        0.99859580       0.88627755       8.47141972       0.00393751      -0.00385557      -0.00064001
H        2.40776778      -0.14135372       7.47110578      -0.00006690       0.00042294       0.00490618
H        1.27099626      -1.13978167       6.56036192      -0.00145052      -0.00476888       0.00156853
H        4.11808107      -0.32725173       5.85123412       0.00424338       0.00257609      -0.00269002
H        3.38190683      -1.91562457       5.64123107      -0.00093577      -0.00922493       0.00266313
H        3.54061026      -0.32561662       3.46052670       0.00556756       0.00198062       0.00665152
H        2.00257381      -1.10785686       3.81190727      -0.00213123       0.00086881       0.00511901
H        2.87261373       1.73321933       4.42813281       0.00190561      -0.00667259       0.00166360
H        1.40165258       1.09866578       2.40681535      -0.00075402       0.00488567       0.00659648
H        0.86685931       2.42710068       3.42850970      -0.00106930      -0.00074241       0.00436815
H        0.35991264      -0.88264505       2.34300193       0.00235287       0.00168914       0.00213851
H       -0.36857328      -1.39871110       3.87597514       0.00037353      -0.00014104      -0.00202827
H       -2.35116827      -1.63991222       2.57808444       0.00526034      -0.00046849      -0.00061538
H       -1.73137228      -0.58586088       1.31284950      -0.00316655      -0.00219243       0.00217462
H       -2.95481300       0.26771343       3.97600244      -0.00097131      -0.00235103      -0.00147601
H       -3.35026354       0.87700161       2.36332624      -0.00103833      -0.00063706       0.00097557
H       -1.13596063       1.92820526       2.16198314      -0.00436123      -0.00043725      -0.00004964
H       -1.60667688       2.32420047       3.83049413      -0.00517104      -0.00258686      -0.00301008
C       -1.57893689       0.14437564       7.22056165      -0.00253428      -0.00090564      -0.00289649
O       -1.34703752      -0.17018649       6.06785149       0.00164550      -0.00435923      -0.00211127
C       -1.48007731      -0.78240840       8.36170906      -0.00089776      -0.00043701       0.00228148
C       -1.69734670      -0.28845718       9.64395660       0.00397236      -0.00255168       0.00443291
C       -1.59292813      -1.13008493      10.73905369      -0.00085757      -0.00363326       0.00309094
C       -1.27916658      -2.45566927      10.50942598      -0.00064848      -0.00071832      -0.00211522
N       -1.16418106      -3.36721377      11.67505516       0.00052148       0.00471827      -0.00366000
O       -0.92641725      -4.53204079      11.44266692       0.00302876       0.00437736       0.00257319
O       -1.31412513      -2.88057780      12.77338152      -0.00390549       0.00002328       0.00281019
C       -1.06744038      -2.97792964       9.24427163      -0.00045738       0.00332862      -0.00337805
C       -1.16740045      -2.12593460       8.16124431      -0.00071747       0.00118192      -0.00404140
H       -1.89676209       1.16867757       7.46620815      -0.00133460       0.00156025      -0.00248289
H       -1.93985296       0.75790883       9.78571477      -0.00066368      -0.00387660       0.00020461
H       -1.74820246      -0.78271543      11.74936696      -0.00322575       0.00115188      -0.00044076
H       -0.83416324      -4.02638654       9.13307461      -0.00099441       0.00691980      -0.00360615
H       -1.01532329      -2.49278842       7.15507414       0.00340932       0.00191729      -0.00470826
