53
Properties=species:S:1:pos:R:3:forces:R:3 Atoms:=T 53,=T ConfID:=T 1=T 0=T spin=1 charge=1 energy=-30761.92195901735 free_energy=-30761.92195901735 stress="0.061462122946977615 -0.0379071906208992 -0.023045847192406654 -0.0379071906208992 0.04974735528230667 0.027769161388278008 -0.023045847192406654 0.027769161388278008 0.021238792687654495" pbc="F F F"
C       -4.97193702      -3.51594033      -6.80327719       0.00361704      -0.00056444       0.00023524
C       -4.06307053      -3.44319967      -5.62418780       0.00077839       0.00301263       0.00272408
C       -2.61946274      -3.77428389      -5.80723365      -0.00007901       0.00121382       0.00093757
N       -4.52863488      -3.10103635      -4.47733675      -0.00033499       0.00236348       0.00197896
C       -5.94944473      -2.74813751      -4.23354073      -0.00059637       0.00083193       0.00188608
C       -5.94742759      -2.21120360      -2.80992043       0.00119575       0.00146263       0.00009493
C       -4.84201319      -3.03030010      -2.14883369      -0.00125122      -0.00033940       0.00011266
C       -3.73949669      -3.05720634      -3.20357869       0.00062252      -0.00302605       0.00096755
C       -2.77561905      -1.85318028      -3.16863693       0.00098134      -0.00131051      -0.00001473
N       -1.40556794      -2.30683214      -3.06960958       0.00120790      -0.00143211      -0.00527033
H       -2.84191296      -6.73816429      -4.59652215      -0.00012107       0.00164133      -0.00062850
C       -0.41682393      -1.24908305      -3.28579850       0.00208994      -0.00052024       0.00115822
C        0.89542801      -1.90361550      -2.85758985      -0.00077140      -0.00239304      -0.00208234
C        0.47407505      -2.94371143      -1.79316162      -0.00317135       0.00228029       0.00070696
C       -1.05523729      -2.86036718      -1.75935505      -0.00171092       0.00028380      -0.00385828
H       -4.48769296      -4.03560024      -7.62559611       0.00016822       0.00115381      -0.00527585
H       -5.21205206      -2.50314391      -7.13997199      -0.00195556      -0.00040281      -0.00067561
H       -5.90904741      -4.01559086      -6.56010346       0.00110510       0.00092768      -0.00123714
H       -2.28730840      -3.34515612      -6.75503635      -0.00045215      -0.00474399      -0.00284401
H       -2.00435783      -3.36900434      -5.00348270      -0.00277414       0.00288168       0.00042052
H       -6.28662670      -2.03324001      -4.98121407       0.00252598      -0.00151122      -0.00104237
H       -6.54587623      -3.65853858      -4.31997981       0.00060562      -0.00019924       0.00009807
H       -5.69580312      -1.14912387      -2.80749856       0.00052296       0.00012764       0.00131359
H       -6.91756647      -2.32912992      -2.33367157       0.00169874       0.00184618      -0.00083423
H       -4.48691729      -2.60328724      -1.21350000       0.00433130      -0.00154922      -0.00198545
H       -5.19188681      -4.04461770      -1.94870290      -0.00368094       0.00014174      -0.00012172
H       -3.16099913      -3.97622786      -3.16554355       0.00219528      -0.00476177       0.00112055
H       -3.04450785      -1.18848782      -2.33102387      -0.00105989      -0.00095801      -0.00000487
H       -2.87702191      -1.26305478      -4.08297419       0.00096844       0.00180403       0.00228461
H       -0.63979478      -0.37362304      -2.65587463       0.00248774      -0.00293278       0.00328167
H       -0.42241312      -0.92508132      -4.32796527      -0.00253400       0.00076847       0.00356860
H        1.60257528      -1.17262640      -2.47150553      -0.00143611      -0.00410233      -0.00398922
H        1.36403035      -2.39577343      -3.70941532       0.00085380       0.00129113      -0.00366250
H        0.80230378      -3.94435613      -2.07396078       0.00000743       0.00505307       0.00238712
H        0.89857721      -2.73187689      -0.81414100      -0.00019841      -0.00069508       0.00097703
H       -1.53426458      -3.82775896      -1.59352500       0.00322286       0.00019568      -0.00088126
H       -1.38863225      -2.17996165      -0.95874654       0.00149508      -0.00202185      -0.00048931
C       -2.42378667      -5.29816506      -5.86526954      -0.00023914       0.00007002      -0.00013984
O       -3.05537824      -5.80269105      -4.69162359      -0.00293635      -0.00211556       0.00369737
C       -0.95532771      -5.64380935      -5.92797553      -0.00240412      -0.00606947       0.00255462
C       -0.11615105      -5.29204719      -4.87137290      -0.00292219      -0.00217635      -0.00127070
C        1.22821446      -5.61168898      -4.91318907      -0.00133209      -0.00360736      -0.00461929
C        1.71289149      -6.27788841      -6.02565558      -0.00185021      -0.00104907       0.00132933
N        3.15302516      -6.61854867      -6.07610652       0.00054733       0.00795207       0.00224170
O        3.82495256      -6.32347002      -5.11122319       0.00333305       0.00573641       0.00004444
O        3.55927986      -7.16551281      -7.07719889      -0.00159240      -0.00544589       0.00244283
C        0.90886730      -6.63803442      -7.08694908      -0.00314781      -0.00449456      -0.00136199
C       -0.44010417      -6.31686552      -7.02788120      -0.00343565       0.00327102       0.00134215
H       -2.92235883      -5.69995147      -6.75423171       0.00330453      -0.00261518      -0.00614757
H       -0.51557661      -4.76077124      -4.01546397      -0.00293767       0.00231033      -0.00073376
H        1.90345145      -5.35681084      -4.10939497       0.00273177       0.00333351       0.00173153
H        1.33527036      -7.16218993      -7.92944079      -0.00225808       0.00637716       0.00282021
H       -1.09188758      -6.59978562      -7.84582685       0.00458494       0.00270593       0.00471300
