53
Properties=species:S:1:pos:R:3:forces:R:3 Atoms:=T 53,=T ConfID:=T 0=T 1=T spin=1 charge=1 energy=-30761.43033847673 free_energy=-30761.43033847673 stress="-0.043538909405469894 0.021192623302340508 0.008299714885652065 0.021192623302340508 -0.013953123241662979 0.0015960567397996783 0.008299714885652065 0.0015960567397996783 -6.366221350617707e-05" pbc="F F F"
C       -4.80615480      -2.72597808      -7.19385916       0.00050466       0.00027936       0.00210608
C       -3.97602700      -2.99693393      -5.97247619       0.00248074       0.00471381       0.00137845
C       -2.73843600      -3.50914879      -6.07412270       0.00305305       0.00275941      -0.00136564
N       -4.56110424      -2.64068426      -4.76843468      -0.00152906       0.00980601      -0.00060447
C       -6.00579675      -2.47103935      -4.60512792      -0.00261207      -0.00329545      -0.00119014
C       -6.12728200      -2.07150511      -3.14427360      -0.00219950       0.00037579      -0.00381062
C       -5.05356202      -2.93206685      -2.47861403      -0.00343308       0.00543358      -0.00104852
C       -3.91246179      -2.95349393      -3.50901212      -0.00319096      -0.00077319      -0.00174432
C       -2.80640014      -1.92103355      -3.25591775      -0.00174619       0.00045269      -0.00015022
N       -1.68368074      -2.47079514      -2.44575947       0.00150775       0.00170926      -0.00154151
H       -1.38049848      -3.36008655      -2.87674306       0.00640265       0.00185139       0.00444039
C       -0.48114482      -1.57451739      -2.40394940       0.00166072       0.00294295      -0.00569019
C        0.34642221      -2.07136246      -1.21224625      -0.00692359       0.00001244      -0.00426932
C       -0.58435251      -3.03064578      -0.43706612      -0.00369636      -0.00237095      -0.00107403
C       -1.96994215      -2.76954614      -1.00900681      -0.00017011      -0.00129267      -0.00009088
H       -4.25293522      -2.99890068      -8.08797515      -0.00351985      -0.00282856       0.00085697
H       -5.06849890      -1.66856600      -7.25874528       0.00108507       0.00127909       0.00155950
H       -5.73611062      -3.29635157      -7.17719909       0.00006280      -0.00103035      -0.00011185
H       -2.33045965      -3.72547480      -7.04973508      -0.00159252      -0.00288210      -0.00553345
H       -2.10430695      -3.71071542      -5.22443172      -0.00321640      -0.00300916       0.00314327
H       -6.38827513      -1.71039482      -5.28264159       0.00029294      -0.00302948       0.00342509
H       -6.54531926      -3.40600621      -4.79898217      -0.00216355      -0.00192171      -0.00240309
H       -5.89582680      -1.01026281      -3.03065939      -0.00257089      -0.00136259       0.00194923
H       -7.12164750      -2.24614721      -2.73939849       0.00267617       0.00047171       0.00215629
H       -4.74286712      -2.54667591      -1.50782431       0.00280810      -0.00073028       0.00130825
H       -5.42913097      -3.94558386      -2.32801863       0.00197586       0.00401675      -0.00494604
H       -3.45015386      -3.95115054      -3.55789457       0.00341059      -0.00229411       0.00156200
H       -3.18738297      -1.03884898      -2.73851859      -0.00325293      -0.00124961       0.00463782
H       -2.38034581      -1.61272808      -4.20998302       0.00096542       0.00402926       0.00095790
H       -0.85088729      -0.56024747      -2.25861610       0.00179007      -0.00137903       0.00207733
H        0.02280888      -1.63097212      -3.36563484       0.00671650      -0.00309453      -0.00103446
H        0.65718570      -1.22886125      -0.59879293       0.00326102      -0.00241990       0.00033408
H        1.24520998      -2.58484299      -1.54519443      -0.00320613       0.00278619       0.00705844
H       -0.30118430      -4.06651889      -0.62059792      -0.00143912      -0.00356606       0.00429736
H       -0.56207617      -2.86624611       0.63729945       0.00359844       0.00296641      -0.00271331
H       -2.65777200      -3.60842557      -0.93734353       0.00117045      -0.00040483       0.00007212
H       -2.43524997      -1.87933139      -0.58298985      -0.00546708      -0.00410223      -0.00417113
C       -0.60526476      -5.79503622      -4.19176512       0.00417688      -0.00347582       0.00090121
O       -0.51073760      -4.74135217      -3.58788901       0.00332910       0.00698387      -0.00038622
C        0.17676210      -6.13501376      -5.38378563      -0.00204012       0.00040959      -0.00373817
C        1.10427898      -5.23284178      -5.90581445       0.00412611      -0.00256089       0.00322461
C        1.82388390      -5.56690671      -7.03495306      -0.00542929       0.00296178      -0.00259592
C        1.59103204      -6.80279631      -7.61752779       0.00105835       0.00061406       0.00141675
N        2.36315097      -7.16397378      -8.83371226      -0.00278045       0.00182338      -0.00195242
O        3.15369058      -6.34507170      -9.24696218       0.00342287       0.00328649      -0.00215752
O        2.14548356      -8.24934358      -9.32332070      -0.00090086      -0.00083643       0.00221662
C        0.67789722      -7.71453391      -7.12655651       0.00437197      -0.00344562       0.00256495
C       -0.03629698      -7.36886909      -5.99122770      -0.00380892       0.00017765      -0.00420142
H       -1.31990707      -6.56277935      -3.85323493      -0.00243487      -0.00216492       0.00330089
H        1.25247938      -4.27924651      -5.41796949       0.00073180      -0.00112653       0.00033292
H        2.55250549      -4.89993596      -7.47064102       0.00004324      -0.00425778      -0.00210296
H        0.54209446      -8.66158769      -7.62646805       0.00030344      -0.00034049      -0.00167768
H       -0.76245204      -8.05837846      -5.57850728       0.00233736      -0.00089747       0.00502726
