53
Properties=species:S:1:pos:R:3:forces:R:3 Atoms:=T 53,=T ConfID:=T 1=T 0=T spin=1 charge=1 energy=-30761.74069747789 free_energy=-30761.74069747789 stress="-0.080142080783844 0.00956529937684536 0.02795889973640442 0.00956529937684536 -0.011657819151878357 0.0300322063267231 0.02795889973640442 0.0300322063267231 0.004651016090065241" pbc="F F F"
C        3.40448912      -0.52823181      -4.52966922       0.00136990      -0.00001167       0.00322976
C        4.03614943      -0.30705053      -3.19098296       0.00248023       0.00102992       0.00274215
C        5.44525556       0.17625465      -3.19073596       0.00088414       0.00036240       0.00219809
N        3.32162474      -0.48810152      -2.13224326      -0.00494070       0.00531944      -0.00154732
C        1.88521768      -0.87886063      -2.24132277      -0.00534929       0.00165331      -0.00068454
C        1.32003969      -0.68808846      -0.84490364       0.00121080       0.00069977       0.00343614
C        2.52054527      -0.97969336       0.03659310      -0.00140988      -0.00088677       0.00398005
C        3.67377599      -0.28247632      -0.67329827      -0.00732277      -0.00175446      -0.00378817
C        5.04139469      -0.78041634      -0.20007383      -0.00728818      -0.00229623      -0.00445750
N        6.02132755       0.28275961      -0.04247529      -0.00587359      -0.00596914       0.00387377
H        5.51620392       1.77970581      -1.27414500      -0.00576024       0.00720260       0.00107934
C        5.78801048       1.13347624       1.13653140      -0.00098295      -0.00130693      -0.00094809
C        7.09067426       1.92213107       1.25877392      -0.00145727      -0.00130111      -0.00199373
C        8.16622131       0.97517463       0.67739019       0.00156403       0.00117218       0.00522754
C        7.37672652      -0.23791008       0.18133698       0.00061182       0.00134929      -0.00483804
H        2.62686523       0.21935929      -4.70687069      -0.00227844      -0.00119468       0.00155802
H        4.14254566      -0.44942584      -5.32138891       0.00107476       0.00156149       0.00249819
H        2.92821629      -1.50804519      -4.58386158       0.00093003      -0.00207770      -0.00401048
H        5.99597551      -0.14940712      -2.31600970      -0.00115824      -0.00280994      -0.00118636
H        5.94164065      -0.20334396      -4.08310135      -0.00284772      -0.00143169       0.00442732
H        1.39450093      -0.26851138      -2.99427209      -0.00399472       0.00300620      -0.00219595
H        1.84397069      -1.92364846      -2.55548361       0.00563805       0.00030188       0.00035736
H        0.98729475       0.34161262      -0.70840286      -0.00392198      -0.00197875      -0.00539511
H        0.47407895      -1.34673774      -0.66390251       0.00245213       0.00500998       0.00150239
H        2.71278452      -2.05516240       0.08728412       0.00469350       0.00101868       0.00484908
H        2.41752424      -0.60790766       1.05419645       0.00205423      -0.00220355       0.00506075
H        3.59823499       0.79499424      -0.52593594       0.00093600      -0.00225090       0.00097021
H        4.88686437      -1.29269334       0.76122189       0.00358049      -0.00553465      -0.00606233
H        5.42643242      -1.53984635      -0.88507866       0.00339256      -0.00175246       0.00202492
H        4.91255539       1.77179553       1.00352819      -0.00066630      -0.00332658      -0.00047362
H        5.62184613       0.50597482       2.02517817      -0.00267124       0.00079089      -0.00276737
H        7.29047636       2.20361128       2.29024774      -0.00382656       0.00073561      -0.00492766
H        7.03130810       2.84019091       0.67447844       0.00027540      -0.00070641       0.00247514
H        8.69813774       1.45689365      -0.14181648      -0.00145007      -0.00122399       0.00418448
H        8.90629806       0.68119944       1.41812840       0.00395622       0.00182183       0.00655122
H        7.77479468      -0.68333219      -0.73351437       0.00879088      -0.00299635      -0.00344063
H        7.35371306      -1.02702000       0.94715756       0.00287637       0.00463052      -0.00305698
C        5.45477503       1.72657563      -3.19907158      -0.00251547      -0.00213517      -0.00018717
O        4.95441477       2.19037682      -1.96229775       0.00619096       0.00447857      -0.00136401
C        6.82845961       2.28861529      -3.50083364      -0.00560550      -0.00247942      -0.00231838
C        6.92226813       3.46973123      -4.22883078       0.00190318       0.00041797       0.00408832
C        8.15400409       4.05822665      -4.46571901       0.00409220      -0.00244644      -0.00038974
C        9.28198305       3.44369896      -3.95831480       0.00506016      -0.00100447      -0.00020893
N       10.60340960       4.06461710      -4.19967495       0.00415699       0.00563813      -0.00030888
O       10.62774666       5.07718127      -4.86359881       0.00086009       0.00143189      -0.00150684
O       11.56970068       3.51697223      -3.71348085       0.00112370      -0.00254113      -0.00333093
C        9.22582730       2.26958687      -3.23260169      -0.00191199      -0.00184223      -0.00025112
C        7.98641151       1.69425933      -3.00859072      -0.00567797       0.00146069       0.00136447
H        4.76275489       2.09342851      -3.96107772       0.00372137       0.00448268      -0.00201512
H        6.02389036       3.94164751      -4.60722918       0.00290866      -0.00268985      -0.00317991
H        8.25141014       4.97453289      -5.02873097      -0.00580472       0.00003211      -0.00052850
H       10.13816070       1.82625497      -2.86129046       0.00206179       0.00389045       0.00030567
H        7.93558205       0.77488273      -2.43972256       0.00386524      -0.00134594      -0.00062124
