53
Properties=species:S:1:pos:R:3:forces:R:3 Atoms:=T 53,=T ConfID:=T 0=T 1=T spin=1 charge=1 energy=-30761.17684182985 free_energy=-30761.17684182985 stress="-0.062063928693532944 -0.02813463658094406 0.04673949256539345 -0.02813463658094406 -0.0709642544388771 0.010638532228767872 0.04673949256539345 0.010638532228767872 -0.09076788276433945" pbc="F F F"
C        4.23688118       0.77646823      -3.77752769       0.00141704      -0.00207581       0.00312441
C        4.48850506      -0.10772976      -2.58421029      -0.00270341      -0.00355847       0.00306562
C        5.53317507      -0.94115821      -2.57246236       0.00447916      -0.00695216      -0.00113432
N        3.54737859       0.07878911      -1.53994474      -0.00412159       0.00080084       0.00168912
C        2.16340540      -0.27765142      -1.92433844      -0.00215186      -0.00322763      -0.00074139
C        2.05284298      -1.79000795      -1.63443724      -0.00209036      -0.00054289       0.00040957
C        3.09668168      -2.05249982      -0.52251335       0.00262306       0.00045323      -0.00069613
C        3.66268625      -0.64680185      -0.26838201       0.00052716      -0.00142662       0.00273240
C        4.99981786      -0.55839748       0.44164055       0.00340640       0.00271897       0.00156531
N        5.55756329       0.82206530       0.36745434       0.00198615       0.00034658       0.00088680
H        5.55831054       1.11322589      -0.61800569      -0.00699178      -0.00082254       0.00169151
C        4.76839413       1.87204437       1.13172104      -0.00020176      -0.00021111       0.00034266
C        5.76589263       2.50377938       2.09905551       0.00430965       0.00109951      -0.00295483
C        7.11683026       2.29876516       1.41477179       0.00419954       0.00153572      -0.00461483
C        6.98277834       0.89762171       0.85077051       0.00224601      -0.00126409       0.00148323
H        3.88239163       1.75904764      -3.46581061      -0.00068512       0.00458740       0.00126848
H        5.14641623       0.88308074      -4.36630253       0.00259077       0.00124614       0.00200878
H        3.48169383       0.34260115      -4.43422611      -0.00296635      -0.00018054      -0.00586025
H        5.69863813      -1.69392935      -1.81961520       0.00120266      -0.00161220       0.00377786
H        6.21884000      -0.93753171      -3.40825455      -0.00156449       0.00103617      -0.00192517
H        1.47838767       0.29227725      -1.29467887      -0.00090658      -0.00053141       0.00184675
H        1.95910864      -0.01912529      -2.95778090       0.00255216       0.00396651      -0.00394006
H        1.04501600      -2.06565809      -1.33041913      -0.00673652      -0.00035920      -0.00256121
H        2.29523738      -2.36507803      -2.52689213       0.00276325      -0.00026451       0.00054108
H        3.87199118      -2.73836378      -0.86336560       0.00342778      -0.00426831       0.00310121
H        2.65610284      -2.47413700       0.38004636      -0.00084634      -0.00015191      -0.00119980
H        2.93770883      -0.13794614       0.37662779      -0.00449264       0.00033806      -0.00231953
H        4.87120447      -0.79915126       1.49800233      -0.00190978       0.00209632       0.00237713
H        5.75407983      -1.22667868       0.03909002      -0.00078797      -0.00186839      -0.00513170
H        4.39597628       2.57825112       0.39519483      -0.00276953       0.00200719       0.00073892
H        3.92801152       1.39014118       1.62300742       0.00119528      -0.00228931       0.00449276
H        5.74626564       1.98706141       3.05988340       0.00271472       0.00346634      -0.00161050
H        5.53284692       3.55067427       2.27861467      -0.00377333      -0.00101143       0.00210681
H        7.25668649       3.01853591       0.60896660      -0.00309759       0.00604830      -0.00350973
H        7.95943832       2.37604700       2.09820935      -0.00299915      -0.00139521       0.00458629
H        7.64242798       0.66206584       0.01860158       0.00085604       0.00022365       0.00124749
H        7.10149360       0.14331803       1.62866687      -0.00354587      -0.00360730       0.00219893
C        6.31070953       3.30832646      -2.67782417       0.00254133       0.00094792       0.00168765
O        5.99655391       2.73788192      -1.65349266      -0.00291912      -0.00282705      -0.00017744
C        7.31143809       2.80816948      -3.63517754       0.00044875       0.00004539       0.00100821
C        7.58585407       3.55661288      -4.77451258       0.00212044      -0.00091127       0.00130473
C        8.52510577       3.10698232      -5.68982064       0.00196614       0.00312622      -0.00233227
C        9.16468681       1.91239701      -5.42753674       0.00062841       0.00134588      -0.00283689
N       10.17715338       1.42524833      -6.39777789      -0.00069305       0.00000095      -0.00183445
O       10.35685843       2.09390913      -7.39014053       0.00391679       0.00032659      -0.00447837
O       10.74973429       0.39343524      -6.12390626      -0.00446829      -0.00763404      -0.00158080
C        8.91047513       1.14383857      -4.30230149      -0.00164620       0.00407738      -0.00219760
C        7.97128443       1.60223354      -3.40107664       0.00302801       0.00112834       0.00428949
H        5.83661227       4.26925984      -2.93907288       0.00179506      -0.00035419      -0.00229715
H        7.06717399       4.49174744      -4.94701075       0.00117938      -0.00038872       0.00255511
H        8.76589188       3.65919059      -6.58559805       0.00088374       0.00332662      -0.00272646
H        9.44572693       0.21700029      -4.15768112      -0.00101720       0.00560889      -0.00276512
H        7.72814658       1.02956383      -2.51674550       0.00508085      -0.00216866       0.00329785
