53
Properties=species:S:1:pos:R:3:forces:R:3 Atoms:=T 53,=T ConfID:=T 1=T 0=T spin=1 charge=1 energy=-30761.660274122787 free_energy=-30761.660274122787 stress="-0.005061627831310034 -0.06911047548055649 0.04695148393511772 -0.06911047548055649 -0.046241629868745804 -0.050253976136446 0.04695148393511772 -0.050253976136446 0.008518869057297707" pbc="F F F"
C        2.45751420      -0.39162097      -2.48049436       0.00205932       0.00097375      -0.00193464
C        1.83157709       0.60948078      -1.56520926      -0.00122332       0.00357608      -0.00153328
C        2.57403349       1.88129880      -1.34128314       0.00712606      -0.00117065       0.00409647
N        0.65713935       0.37837172      -1.08775623       0.00136810      -0.00060186       0.00461284
C       -0.17793126      -0.76735949      -1.53652944      -0.00381432      -0.00079253      -0.00097626
C       -1.59685358      -0.26000433      -1.34220201      -0.00092057      -0.00047173       0.00220795
C       -1.48545564       0.55672052      -0.06323384       0.00095755      -0.00266771       0.00052070
C       -0.13219821       1.26821336      -0.16760497      -0.00209321       0.00136461       0.00140285
C        0.51507275       1.56374199       1.19628795       0.00141960       0.00042413       0.00001942
N        1.39479984       0.54051046       1.73045596       0.00268584      -0.00018203       0.00105112
H        3.01491995       0.90003934       0.92060166       0.00157134       0.00174957      -0.00283805
C        0.80302880      -0.77003732       2.02237844      -0.00738397       0.00160735      -0.00101360
C        1.87062114      -1.46219056       2.87201895      -0.00646972      -0.00125357      -0.00294885
C        2.61503126      -0.30228043       3.57178342      -0.00045807      -0.00325057      -0.00080081
C        1.92981503       0.95596179       3.04522126       0.00122754       0.00180478       0.00500664
H        1.95060804      -0.36276602      -3.44924459      -0.00289257      -0.00252027      -0.00046285
H        3.50320935      -0.15597863      -2.64961889       0.00518791      -0.00094867       0.00047882
H        2.37459480      -1.40440888      -2.08794268       0.00350565      -0.00172520      -0.00431380
H        1.98901338       2.62882037      -0.81019177       0.00522358      -0.00422525       0.00227943
H        2.77545983       2.26474964      -2.34833908      -0.00178888      -0.00423923       0.00426101
H        0.05802550      -1.01505653      -2.56652200       0.00010973      -0.00441590       0.00009044
H        0.03792864      -1.63264761      -0.90821228       0.00231521       0.00294825      -0.00068053
H       -2.31109586      -1.07673296      -1.27130515      -0.00013616       0.00116932       0.00250328
H       -1.88483103       0.37031928      -2.18524717       0.00369476      -0.00405799      -0.00011927
H       -2.28911961       1.28000143       0.05799467       0.00271020      -0.00456802      -0.00239079
H       -1.49594710      -0.09832056       0.80777469       0.00150321       0.00111377       0.00210734
H       -0.26493410       2.21355040      -0.69776459      -0.00310061       0.00270772       0.00103676
H       -0.32133110       1.76968140       1.88289134      -0.00192067      -0.00211044      -0.00320614
H        1.10047523       2.48320644       1.14378581       0.00133890       0.00018596      -0.00336779
H       -0.12838110      -0.64760264       2.59508137      -0.00635138       0.00188415       0.00676405
H        0.57076085      -1.31975403       1.11128513      -0.00478280      -0.00171875      -0.00280215
H        2.55133092      -2.02888961       2.23763105      -0.00274359       0.00223585      -0.00246183
H        1.42244945      -2.16150094       3.57456186      -0.00307462       0.00098963       0.00090283
H        3.67040494      -0.30083614       3.30483197      -0.00043952      -0.00128640      -0.00560494
H        2.55091759      -0.36109947       4.65590438      -0.00064898       0.00150576      -0.00034182
H        1.09825562       1.25254629       3.69918838      -0.00161949       0.00320028       0.00634121
H        2.59879649       1.80765128       2.93141121       0.00547656       0.00014758      -0.00362284
C        3.94459803       1.71397048      -0.62905999       0.00511933       0.00021849      -0.00228610
O        3.78250669       1.48612729       0.74049482       0.00212902       0.00080235      -0.00444894
C        4.75385299       2.97435711      -0.83641979      -0.00081760       0.00248643       0.00033931
C        5.64640556       3.05766998      -1.89824959      -0.00550156      -0.00031712      -0.00085500
C        6.36073377       4.22213782      -2.12796950       0.00201065      -0.00470062       0.00340053
C        6.16068829       5.28994315      -1.27485974      -0.00017676      -0.00348574       0.00188167
N        6.92090769       6.53745171      -1.50801101      -0.00329361       0.00244681      -0.00275936
O        7.69632150       6.54919937      -2.43948542      -0.00448807       0.00393147       0.00067862
O        6.71408583       7.46288484      -0.75316048       0.00178135      -0.00025941      -0.00278511
C        5.28554716       5.23431644      -0.20653748       0.00379547       0.00137403       0.00458918
C        4.57997525       4.06243203       0.01036928       0.00061272       0.00290304      -0.00098117
H        4.48734455       0.88538066      -1.10039514      -0.00235814      -0.00308795      -0.00375799
H        5.80389554       2.20171383      -2.54472229      -0.00138856       0.00283893      -0.00175933
H        7.06835997       4.30864126      -2.93893235      -0.00218740       0.00234509      -0.00026529
H        5.17350265       6.09474275       0.43609447       0.00256987       0.00141897       0.00546870
H        3.90882619       3.98188948       0.85486923       0.00457407       0.00370327      -0.00072258
