53
Properties=species:S:1:pos:R:3:forces:R:3 Atoms:=T 53,=T ConfID:=T 0=T 1=T spin=1 charge=1 energy=-30761.50270471437 free_energy=-30761.50270471437 stress="-0.019066324457526207 0.011982778087258339 -0.021732909604907036 0.011982778087258339 0.022856377065181732 -0.0280426274985075 -0.021732909604907036 -0.0280426274985075 0.042803697288036346" pbc="F F F"
C        1.93045399       1.58268576      -2.52875985      -0.00038676       0.00032847      -0.00006130
C        1.28543954       2.17666231      -1.30741561       0.00001023      -0.00209957       0.00137979
C        1.71478174       3.33986682      -0.80006965       0.00038531      -0.00281386       0.00312583
N        0.26330881       1.41349935      -0.73707325       0.00096577       0.00029734       0.00167791
C       -0.61044091       0.56295583      -1.57211848       0.00160413      -0.00124688      -0.00151141
C       -2.01903496       0.86271903      -1.07049638       0.00016948       0.00155253       0.00366928
C       -1.79450953       1.16322662       0.40731077       0.00482661       0.00126348       0.00329914
C       -0.48158384       1.95038442       0.39756621       0.00162557       0.00245658       0.00150490
C        0.32148043       1.87835439       1.70621973      -0.00158272       0.00375252      -0.00073198
N        1.28663812       0.74556030       1.73207666      -0.00364061       0.00348938       0.00363465
H        1.81759896       0.76889477       0.85010764       0.00189588      -0.00194139       0.00885150
C        0.69858009      -0.62678255       1.85370874      -0.00109625       0.00099069       0.00083677
C        1.88535626      -1.48509670       2.25311049       0.00354456      -0.00010334       0.00269374
C        2.70987990      -0.58186478       3.18709514       0.00241028       0.00101031      -0.00140207
C        2.27811396       0.85409486       2.86114607       0.00084039       0.00123244      -0.00267489
H        1.31526628       1.73851485      -3.41618039      -0.00269753      -0.00194573      -0.00008893
H        2.89049900       2.06150678      -2.71051728      -0.00053866       0.00177818      -0.00246889
H        2.08042909       0.50744815      -2.41637565      -0.00069364       0.00108513       0.00273712
H        1.24321987       3.84533491       0.02931154       0.00045958       0.00062020      -0.00130612
H        2.53795898       3.85203246      -1.27555913      -0.00479556      -0.00444872       0.00135115
H       -0.49474921       0.79565576      -2.62718009       0.00291034       0.00120226      -0.00598886
H       -0.35946155      -0.49395265      -1.43763867       0.00021610      -0.00484396       0.00174550
H       -2.70956277       0.03968601      -1.24273120      -0.00247542       0.00248660      -0.00227019
H       -2.41242051       1.74641346      -1.57562946       0.00223396       0.00147885       0.00074703
H       -2.59892322       1.73854881       0.86270793      -0.00284486      -0.00606691      -0.00416607
H       -1.69363919       0.23514317       0.97331040      -0.00386273      -0.00080887      -0.00042075
H       -0.70994207       3.01100649       0.23073449      -0.00397653       0.00003158      -0.00029356
H       -0.34261867       1.76589126       2.56428389       0.00218817      -0.00052550      -0.00032791
H        0.91692127       2.77653045       1.85432013      -0.00066677       0.00063594      -0.00068692
H       -0.06017697      -0.58171989       2.63632724      -0.00594865       0.00258159       0.00235695
H        0.23615494      -0.90332971       0.91080121       0.00290662      -0.00140752      -0.00578498
H        2.46217623      -1.74694436       1.36831928      -0.00147876       0.00254331      -0.00197802
H        1.56282348      -2.40458485       2.73590643      -0.00013576      -0.00037534      -0.00225765
H        3.77653356      -0.71859409       3.02910631      -0.00011549      -0.00055011      -0.00058956
H        2.49948997      -0.80118523       4.23225069       0.00375368      -0.00095959      -0.00626947
H        1.76426400       1.33080198       3.69416960       0.00117916      -0.00527976      -0.00440622
H        3.08783189       1.49778368       2.52773928      -0.00220091       0.00415885       0.00148215
C        4.49243774       0.24984048      -0.68169449      -0.00129128      -0.00352957       0.00440037
O        3.57094269       0.22040835       0.10846698       0.00558540       0.00504109      -0.00557653
C        5.32947565       1.43061763      -0.94676564      -0.00035301      -0.00354936      -0.00374191
C        6.34842390       1.33099091      -1.88897573       0.00221866       0.00187298       0.00057556
C        7.14553563       2.42981877      -2.16801258       0.00216505      -0.00006240      -0.00093055
C        6.89016070       3.60318531      -1.48685344       0.00184887       0.00265245       0.00082603
N        7.73631922       4.78801330      -1.77844082      -0.00255861      -0.00128989       0.00122279
O        8.62152751       4.64761365      -2.59162037      -0.00176212      -0.00141186      -0.00229650
O        7.47770024       5.80937133      -1.18068335       0.00021975       0.00202886      -0.00079099
C        5.88324796       3.73229208      -0.54357828       0.00238133      -0.00223057       0.00121348
C        5.09800219       2.62954994      -0.27368081       0.00041700      -0.00103189       0.00085749
H        4.74891166      -0.65314201      -1.26205406      -0.00393395       0.00168788       0.00506334
H        6.51996405       0.39402272      -2.40478144      -0.00308668       0.00000373       0.00085521
H        7.94636914       2.39209103      -2.89097660       0.00106218      -0.00328404      -0.00031173
H        5.73617890       4.68031155      -0.04810936       0.00177833       0.00029670       0.00352423
H        4.29192163       2.68649932       0.44428900       0.00032110       0.00324680      -0.00029809
