53
Properties=species:S:1:pos:R:3:forces:R:3 Atoms:=T 53,=T ConfID:=T 1=T 0=T spin=1 charge=1 energy=-30761.910838221145 free_energy=-30761.910838221145 stress="-0.014783008955419064 0.05071251839399338 -0.016197264194488525 0.05071251839399338 -0.02276952564716339 0.07136636227369308 -0.016197264194488525 0.07136636227369308 0.010619875974953175" pbc="F F F"
C        0.88999496       1.82702538      -0.52508188       0.00046270       0.00047973      -0.00186946
C        0.52210733       0.93624373       0.61094102      -0.00481453       0.00288303      -0.00031152
C        0.28978541       1.59068091       1.92491489      -0.00377225       0.00093352       0.00168316
N        0.28780919      -0.32095595       0.46893810       0.00499502       0.00114962       0.00363880
C        0.04217126      -1.26203215       1.60144497       0.00139661      -0.00467906      -0.00051094
C        0.07159573      -2.65961727       0.97112954       0.00427188      -0.00309833      -0.00024221
C        0.61697856      -2.44648610      -0.44739976       0.00059600       0.00668249       0.00126430
C        0.12352242      -1.05189866      -0.81042119       0.00095656       0.00579994       0.00421054
C       -1.36910201      -1.06374648      -1.16722006      -0.00107363      -0.00159394      -0.00141614
N       -1.95719899       0.25471390      -1.30755025       0.00119045       0.00383191       0.00240573
H       -2.00154284       1.08082908       0.49010476      -0.00325142      -0.00403211       0.00054951
C       -3.43431569       0.20937548      -1.28520676       0.00073636       0.00526588       0.00186656
C       -3.84295333       1.60474737      -1.75801922       0.00073156       0.00303552      -0.00224910
C       -2.64716852       2.08446241      -2.61481144      -0.00185843       0.00349116      -0.00464425
C       -1.68117675       0.90212483      -2.59900405      -0.00042227       0.00375480      -0.00038958
H       -0.00112613       2.36246573      -0.86212146      -0.00058935       0.00311411       0.00082409
H        1.60311779       2.57016275      -0.17165875       0.00220935      -0.00135736       0.00497572
H        1.31709001       1.30194000      -1.37266174      -0.00169652      -0.00127686      -0.00472965
H        1.00878519       2.39102453       2.09538223      -0.00107797      -0.00099170      -0.00339294
H        0.32948582       0.89564869       2.75880999       0.00027608       0.00385281       0.00591842
H       -0.90935910      -1.01112612       2.06682013       0.00224259      -0.00646043      -0.00318055
H        0.84030207      -1.12466229       2.32798758      -0.00558394      -0.00294201       0.00158245
H        0.69551023      -3.33498605       1.55058638       0.00432722      -0.00588668      -0.00153665
H       -0.92855550      -3.08751869       0.94501058       0.00381809      -0.00272542       0.00202071
H        1.70708846      -2.46640411      -0.45370453      -0.00090532      -0.00478953      -0.00164422
H        0.26330182      -3.19638653      -1.15265972       0.00214931       0.00633897       0.00440311
H        0.71009118      -0.57742916      -1.59177466       0.00007559      -0.00041119       0.00036431
H       -1.91258856      -1.59112373      -0.38020198       0.00062880      -0.00255751       0.00218016
H       -1.48059297      -1.65767575      -2.08592204      -0.00288092      -0.00684169      -0.00365315
H       -3.79636019      -0.03881809      -0.28687644       0.00218276      -0.00116414      -0.00000643
H       -3.79321293      -0.56020391      -1.98229548      -0.00085918       0.00130289       0.00917244
H       -4.77206380       1.57284441      -2.32231037      -0.00018518       0.00034334       0.00166006
H       -4.00130483       2.26543692      -0.90650983      -0.00159783      -0.00072900      -0.00112149
H       -2.93404104       2.35005929      -3.62961783      -0.00130738       0.00254084      -0.00659280
H       -2.18315507       2.96624298      -2.17047701      -0.00014526      -0.00085829       0.00091594
H       -0.63555812       1.19145556      -2.69693310       0.00115165      -0.00251537      -0.00389858
H       -1.91044189       0.20252230      -3.41623854      -0.00014636       0.00326500       0.00109693
C       -1.15573599       2.19888830       1.86907780       0.00148052       0.00040985       0.00291016
O       -2.08045520       1.22265778       1.45632033       0.00117803       0.00209050      -0.00858356
C       -1.51440781       2.70568523       3.24338904       0.00318401       0.00042943       0.00300629
C       -1.11154110       3.97712365       3.63580745      -0.00084644       0.00079188       0.00013889
C       -1.38770074       4.43855012       4.91218893       0.00221820       0.00051378      -0.00163056
C       -2.06914855       3.60373784       5.77675474       0.00010905      -0.00140951      -0.00564087
N       -2.36996447       4.08605662       7.14292921       0.00343270       0.00045405      -0.00363977
O       -2.00870098       5.20724726       7.42748890       0.00107646      -0.00256649       0.00115691
O       -2.95499659       3.32552062       7.88331139       0.00176876       0.00377569      -0.00020526
C       -2.48783806       2.33865069       5.41197625      -0.00280373      -0.00161915      -0.00134125
C       -2.20577469       1.89038408       4.13193509      -0.00152461       0.00187435      -0.00056545
H       -1.14615573       3.04445936       1.17161652      -0.00607065      -0.00431969       0.00066950
H       -0.59036384       4.62389264       2.93910127       0.00051635      -0.00673705      -0.00050709
H       -1.09322278       5.42453329       5.23928243       0.00016409      -0.00049370       0.00073579
H       -3.02623692       1.72929170       6.12244337      -0.00648465       0.00200646       0.00080538
H       -2.54306257       0.91330405       3.81500682       0.00037105       0.00164448       0.00334779
