53
Properties=species:S:1:pos:R:3:forces:R:3 Atoms:=T 53,=T ConfID:=T 0=T 1=T spin=1 charge=1 energy=-30761.493030165268 free_energy=-30761.493030165268 stress="0.021047811955213547 -0.02911638468503952 0.0029302057810127735 -0.02911638468503952 -0.0030161202885210514 -0.04052041843533516 0.0029302057810127735 -0.04052041843533516 -0.03799119591712952" pbc="F F F"
C        1.35226060       1.77165919      -0.58302073       0.00012083       0.00178838       0.00152385
C        0.87214977       1.19991323       0.72085203       0.00270197      -0.00282017       0.00216132
C        1.20700921       1.78756830       1.87706199       0.00214440       0.00083396      -0.00075547
N        0.06097962       0.06018372       0.67406172      -0.00077728      -0.00058829       0.00307994
C        0.03309622      -0.79372913       1.87836415      -0.00180109      -0.00103634       0.00007188
C       -0.15639040      -2.22420024       1.36825253      -0.00122540       0.00027818       0.00097554
C        0.38172376      -2.16362619      -0.06253918      -0.00199854       0.00188279      -0.00626641
C       -0.06468927      -0.77431624      -0.52298132      -0.00286820       0.00424790      -0.00060256
C       -1.52627843      -0.85393941      -0.97539744       0.00280987      -0.00009466      -0.00047315
N       -2.15386737       0.48403078      -1.14170620       0.00196708      -0.00543001       0.00108951
H       -1.84157002       1.06477458      -0.34874497      -0.00040048      -0.00177976      -0.00463239
C       -3.66404845       0.43146874      -1.07098235       0.00546886      -0.00162729       0.00708532
C       -4.12790771       1.50952359      -2.03081275      -0.00261156      -0.00464578       0.00384916
C       -3.11770257       1.37682959      -3.16822891       0.00070801      -0.00221546       0.00214029
C       -1.79990958       1.21421982      -2.42305289       0.00052440      -0.00254163       0.00774756
H        0.53205043       1.97941637      -1.27135606       0.00277133       0.00250197      -0.00379610
H        1.87711972       2.70501858      -0.39909627      -0.00041972       0.00434178       0.00220589
H        2.04541062       1.09636217      -1.08860955       0.00195511       0.00113766       0.00160935
H        1.84273161       2.66048099       1.86444233      -0.00166367       0.00435681       0.00126863
H        0.89856645       1.41536621       2.84280082      -0.00616229      -0.00225500      -0.00566860
H       -0.74974933      -0.48181661       2.57244417      -0.00149761      -0.00062266      -0.00272208
H        0.99037019      -0.69480490       2.39655766      -0.00291369      -0.00142986      -0.00347464
H        0.37869306      -2.94197684       1.98564907       0.00573102       0.00249715       0.00169523
H       -1.20692820      -2.51796175       1.38034450      -0.00412718       0.00264317       0.00638618
H        1.47133074      -2.20592236      -0.06295179       0.00171531      -0.00082330      -0.00348085
H        0.01318446      -2.96596344      -0.70191069      -0.00395656      -0.00698356      -0.00098322
H        0.55172363      -0.39170664      -1.33352733      -0.00405464      -0.00326685      -0.00488697
H       -2.11270697      -1.37428150      -0.21806160       0.00149189       0.00427959      -0.00443047
H       -1.62554920      -1.39342567      -1.91854272       0.00136937      -0.00279353       0.00364518
H       -3.96141638       0.57149419      -0.03501784       0.00057037       0.00340115       0.00510104
H       -3.96893839      -0.55835277      -1.41019354      -0.00042493       0.00511219      -0.00076041
H       -5.15688877       1.35213665      -2.34510828      -0.00386592      -0.00394194      -0.00471733
H       -4.05573892       2.49112309      -1.56003509      -0.00131928       0.00167114      -0.00815400
H       -3.33491358       0.49340001      -3.77128686      -0.00215022       0.00118644      -0.00402109
H       -3.09327282       2.23932655      -3.83018165       0.00164932      -0.00365353      -0.00458580
H       -1.39907416       2.18310152      -2.13484501       0.00134223       0.00082901      -0.00043314
H       -1.03676428       0.65156231      -2.95551425      -0.00198553       0.00234237       0.00242882
C       -1.54317934       3.18296750       1.54997162       0.00044788       0.00419375      -0.00122930
O       -2.11605752       2.50932987       0.71462087       0.00476364       0.00404655      -0.00126166
C       -1.70462332       3.00699395       3.00299514       0.00457972      -0.00017801       0.00104932
C       -1.01236114       3.85450116       3.86095733      -0.00351797      -0.00014427       0.00506049
C       -1.12239127       3.69458479       5.23240548       0.00114843      -0.00316100       0.00466598
C       -1.93010308       2.67765069       5.70305510      -0.00009011      -0.00133350       0.00004623
N       -2.04398393       2.48659248       7.17020606       0.00110441       0.00320030       0.00095082
O       -1.41970461       3.24650856       7.87603852      -0.00239361      -0.00286658       0.00048085
O       -2.75104220       1.58122611       7.55537568       0.00360635       0.00405742      -0.00517020
C       -2.63807947       1.82436848       4.87272320      -0.00345203      -0.00031900      -0.00020559
C       -2.52175147       1.99742945       3.50735967       0.00366175       0.00007093      -0.00154770
H       -0.87041190       3.99704987       1.23907770       0.00315401       0.00041319       0.00201842
H       -0.38026424       4.63510342       3.45498530      -0.00223651      -0.00565022       0.00550106
H       -0.59882893       4.33029367       5.93048550      -0.00038329       0.00305024      -0.00245581
H       -3.25894396       1.05408548       5.30485506      -0.00183698      -0.00193341       0.00484536
H       -3.06074957       1.35729811       2.82178300       0.00262677      -0.00022842      -0.00196819
