53
Properties=species:S:1:pos:R:3:forces:R:3 Atoms:=T 53,=T ConfID:=T 1=T 0=T spin=1 charge=1 energy=-30762.072305296493 free_energy=-30762.072305296493 stress="0.07274067401885986 -0.011401733383536339 0.024098454043269157 -0.011401733383536339 -0.03549608215689659 -0.004173349589109421 0.024098454043269157 -0.004173349589109421 0.009358560666441917" pbc="F F F"
C       -4.57088461      -0.50204828       1.11840710       0.00722305      -0.00015146      -0.00179839
C       -3.13796712      -0.52804252       0.71080026       0.00444715      -0.00368091       0.00075229
C       -2.60001647      -1.80825563       0.17481696       0.00031310      -0.00032489       0.00091197
N       -2.41102354       0.52339868       0.86699786       0.00101645      -0.00169864      -0.00310088
C       -2.95807119       1.80025534       1.40610335      -0.00112434      -0.00318348      -0.00117905
C       -1.81510258       2.80444620       1.28423279      -0.00057354      -0.00094788      -0.00280611
C       -0.92647560       2.19517774       0.20056628       0.00125817      -0.00070165      -0.00222558
C       -0.96792992       0.70150543       0.51543651      -0.00047665      -0.00097012      -0.00056868
C       -0.05789198       0.35274102       1.69790014       0.00078831       0.00167489       0.00148322
N        0.17854674      -1.06623319       1.89543017       0.00692255       0.00455413       0.00210391
H       -1.38707076      -1.91687988       2.38336001       0.00246449      -0.00399660       0.00230895
C        0.88941505      -1.31762979       3.16493363       0.00201609      -0.00233597       0.00180760
C        1.35554178      -2.76330641       3.03779570       0.00122490      -0.00123242      -0.00502919
C        1.56664303      -2.96427167       1.52142233      -0.00245722       0.00078572      -0.00412697
C        1.06548474      -1.66484661       0.88232063      -0.00188292       0.00147062      -0.00108346
H       -5.09592779      -1.37020400       0.73032938       0.00022813       0.00325209       0.00746507
H       -4.62250898      -0.52663132       2.21039384       0.00157600       0.00223204      -0.00497225
H       -5.07556347       0.40068901       0.77695770       0.00285991      -0.00311577       0.00087531
H       -3.21576362      -2.10648962      -0.67768352       0.00166698      -0.00023946       0.00433865
H       -1.56954202      -1.71505201      -0.15316782      -0.00165885      -0.00394320       0.00111934
H       -3.30687250       1.64186583       2.42552208       0.00034986       0.00032535       0.00142787
H       -3.80818231       2.08953405       0.78946054      -0.00219829       0.00413243       0.00209282
H       -2.18581590       3.79169012       1.02070309       0.00450119       0.00210365       0.00017430
H       -1.27403136       2.89569462       2.22505749      -0.00631037       0.00543404      -0.00053852
H       -1.34937069       2.37584538      -0.78895932      -0.00205670       0.00204897      -0.00126686
H        0.08972823       2.58224013       0.20764478       0.00241785      -0.00201212       0.00476765
H       -0.73049633       0.09453222      -0.35399680      -0.00175350      -0.00303405       0.00140317
H       -0.49143748       0.75630289       2.61627983      -0.00232702       0.00023101       0.00074335
H        0.89486227       0.87984447       1.53616548       0.00139673      -0.00096368       0.00062602
H        0.22607628      -1.14190450       4.01307216       0.00004994       0.00268088       0.00076791
H        1.74755968      -0.63614485       3.25375200      -0.00230816      -0.00005367      -0.00227781
H        0.58645368      -3.44091376       3.40772259       0.00011179       0.00646629       0.00056741
H        2.25900644      -2.94328873       3.61611630      -0.00403416      -0.00215781       0.00097104
H        0.99741750      -3.81922873       1.16002582      -0.00268790      -0.00077923       0.00286661
H        2.61087710      -3.13722304       1.26885732      -0.00306760       0.00090132      -0.00005568
H        1.90315308      -0.98154485       0.68003152      -0.00333901       0.00143977       0.00049194
H        0.54448938      -1.83685911      -0.06129275      -0.00220748       0.00020317      -0.00127948
C       -2.68898346      -2.85690015       1.30875034      -0.00347899       0.00105737      -0.00335370
O       -2.30609967      -2.24930295       2.52454100       0.00031596      -0.00049962      -0.00568243
C       -1.87643174      -4.10271458       1.00895196       0.00155084       0.00294217      -0.00007328
C       -1.50393081      -4.91264482       2.07987853      -0.00206185      -0.00225413      -0.00000239
C       -0.75546233      -6.05745055       1.87054015      -0.00046975      -0.00363232      -0.00113957
C       -0.39188881      -6.38064271       0.57589918       0.00770632       0.00072201      -0.00128556
N        0.42740805      -7.59078895       0.34429027       0.00390086       0.00036382      -0.00122332
O        0.76344134      -8.22765944       1.31870792      -0.00407562       0.00125301       0.00381046
O        0.71056764      -7.85726153      -0.80370581       0.00065497       0.00039796      -0.00159334
C       -0.76074644      -5.61190661      -0.50892563      -0.00149498      -0.00217639      -0.00011045
C       -1.50901643      -4.46602870      -0.28238461       0.00181695       0.00181215      -0.00043311
H       -3.73419725      -3.14897562       1.43862171      -0.00406780      -0.00167581       0.00277670
H       -1.79527610      -4.63196169       3.08290367      -0.00262601      -0.00167286       0.00203437
H       -0.45070540      -6.69562872       2.68688848      -0.00016801      -0.00365273       0.00089517
H       -0.46101082      -5.90935697      -1.50287323       0.00007420       0.00096960      -0.00102299
H       -1.79765037      -3.86508283      -1.13506522       0.00005405       0.00163199      -0.00135416
