53
Properties=species:S:1:pos:R:3:forces:R:3 Atoms:=T 53,=T ConfID:=T 0=T 1=T spin=1 charge=1 energy=-30761.517468069625 free_energy=-30761.517468069625 stress="0.05647756904363632 -0.01081685721874237 0.01177897211164236 -0.01081685721874237 -0.058509618043899536 0.0194702185690403 0.01177897211164236 0.0194702185690403 0.0055975886061787605" pbc="F F F"
C       -3.57182634      -2.12655268       1.23864718       0.00049063      -0.00068740      -0.00276443
C       -2.56781496      -1.36188335       0.42066318       0.00217784       0.00059375      -0.00487429
C       -1.97705966      -1.93182777      -0.63510962       0.00485578      -0.00083623      -0.00212158
N       -2.32580948      -0.06006506       0.89390629       0.00439665      -0.00117805      -0.00172650
C       -3.51180980       0.71109134       1.33961383       0.00242093      -0.00372819       0.00187191
C       -3.08061335       2.16609966       1.23883782       0.00127303      -0.00299267       0.00214059
C       -2.14459754       2.15228212       0.03178206      -0.00049131       0.00050877      -0.00075619
C       -1.38875407       0.83113449       0.20341173       0.00345688       0.00208227      -0.00270463
C       -0.16169546       1.07178253       1.08183246       0.00094346       0.00025515       0.00050145
N        0.48439739      -0.19047698       1.53498394      -0.00109759       0.00018647       0.00014575
H       -0.26249714      -0.81241862       1.87187192       0.00145108      -0.00304133      -0.00040170
C        1.45655715       0.00879017       2.68822059      -0.00166630       0.00027450      -0.00069911
C        2.76670978      -0.63298430       2.24137038      -0.00072448      -0.00130347      -0.00109994
C        2.32644716      -1.66891177       1.20907651      -0.00122722      -0.00001550      -0.00027985
C        1.23078361      -0.93591975       0.45754677      -0.00182669       0.00090016       0.00019631
H       -3.57620004      -3.17452772       0.94825057       0.00434945      -0.00506962       0.00057857
H       -3.34542958      -2.04654576       2.30369132      -0.00438041      -0.00089658       0.00343804
H       -4.58032488      -1.73737152       1.09292936      -0.00198918       0.00251005      -0.00271996
H       -2.22243202      -2.95335225      -0.88585060       0.00498131       0.00223186       0.00000619
H       -1.30375775      -1.41962560      -1.30611523      -0.00139766       0.00070200      -0.00124545
H       -3.81228378       0.42544209       2.34638706       0.00141733      -0.00047772       0.00438915
H       -4.35390575       0.52500132       0.66536889       0.00219872       0.00169717      -0.00029790
H       -3.92919440       2.83426179       1.10955871       0.00340948      -0.00095004       0.00256224
H       -2.55332129       2.47822758       2.14235980      -0.00058584       0.00239114       0.00110007
H       -2.72012266       2.12086408      -0.89374342      -0.00768219       0.00115515       0.00259074
H       -1.48014087       3.01524373      -0.01827836      -0.00022201       0.00083026      -0.00276766
H       -1.08636656       0.42574495      -0.76089349      -0.00081775       0.00177328      -0.00456510
H       -0.46535145       1.60424803       1.98293146      -0.00137046       0.00024525      -0.00125373
H        0.59487842       1.66264882       0.56346656      -0.00004025       0.00242455       0.00533815
H        1.02267060      -0.49029351       3.55048378      -0.00272200       0.00010759       0.00225507
H        1.53826602       1.07322963       2.89001793       0.00087232       0.00307834      -0.00081994
H        3.30238951      -1.06609962       3.08269648      -0.00107930      -0.00646635      -0.00111301
H        3.41718494       0.10944544       1.77711218       0.00154408      -0.00005235      -0.00027294
H        1.91747643      -2.55306055       1.70009678       0.00373310      -0.00230550       0.00110920
H        3.12954433      -1.98179107       0.54538184      -0.00134386       0.00164727      -0.00121513
H        1.64375988      -0.19213558      -0.22495907      -0.00194117       0.00047851       0.00251862
H        0.52830038      -1.57032578      -0.07487177      -0.00138230       0.00467544      -0.00169219
C       -1.06469756      -3.43377479       3.32272207       0.00453618       0.00083272       0.00043206
O       -0.49601836      -2.41731199       2.97931185      -0.00376890      -0.00135572       0.00141053
C       -1.24923691      -4.61323388       2.46183663       0.00169447      -0.00016914      -0.00352269
C       -2.00035559      -5.68323725       2.93732107      -0.00730805       0.00440306      -0.00451631
C       -2.22878353      -6.78456482       2.12714301       0.00574154      -0.00596640       0.00092705
C       -1.68446399      -6.77890437       0.85817557      -0.00796554       0.00139906       0.00065856
N       -1.93828799      -7.94463865      -0.02572647       0.00392149      -0.00124129       0.00060697
O       -2.61487746      -8.84141924       0.42410778       0.00625367      -0.00148003       0.00025681
O       -1.45306219      -7.90978883      -1.13537959      -0.00107301      -0.00216274       0.00779612
C       -0.91803331      -5.73564210       0.36388424       0.00263002      -0.00495053       0.00069470
C       -0.70322613      -4.64318295       1.17941675      -0.00595221       0.00689998      -0.00390344
H       -1.49118979      -3.51016374       4.33707572       0.00150030      -0.00014868       0.00227613
H       -2.41406900      -5.65259331       3.93800707      -0.00050233       0.00022400      -0.00350055
H       -2.81222345      -7.63091726       2.45686439      -0.00429511       0.00041104       0.00276825
H       -0.51536060      -5.79698475      -0.63637414      -0.00532992      -0.00220812       0.00305590
H       -0.12683522      -3.79855035       0.82948013      -0.00006684       0.00476541      -0.00079111
